# Force and moment coefficients
# dragDir         : (1.0000000000e+00 0.0000000000e+00 0.0000000000e+00)
# sideDir         : (0.0000000000e+00 0.0000000000e+00 -1.0000000000e+00)
# liftDir         : (0.0000000000e+00 1.0000000000e+00 0.0000000000e+00)
# rollAxis        : (1.0000000000e+00 0.0000000000e+00 0.0000000000e+00)
# pitchAxis       : (0.0000000000e+00 0.0000000000e+00 -1.0000000000e+00)
# yawAxis         : (0.0000000000e+00 1.0000000000e+00 0.0000000000e+00)
# magUInf         : 5.0000000000e-01
# lRef            : 1.0000000000e-01
# Aref            : 3.0000000000e-02
# CofR            : (0.0000000000e+00 0.0000000000e+00 0.0000000000e+00)
#
# Time            	Cd                	Cd(f)             	Cd(r)             	Cl                	Cl(f)             	Cl(r)             	CmPitch           	CmRoll            	CmYaw             	Cs                	Cs(f)             	Cs(r)             
1                 	5.2348967786e-01	1.8279632632e-01	3.4069335154e-01	5.7161902362e-02	-1.2473806996e-01	1.8189997232e-01	-1.5331902114e-01	-7.8948512610e-02	7.7535134627e-01	1.0196600547e-03	7.7586117629e-01	-7.7484151624e-01
2                 	1.2663756860e-01	-2.1124524405e-01	3.3788281265e-01	1.9182310977e-01	6.8992237222e-02	1.2283087255e-01	-2.6919317665e-02	-2.7456402835e-01	1.8972217775e-01	-9.1358900751e-03	1.8515423271e-01	-1.9429012279e-01
3                 	-1.0429431909e-01	-3.0296957455e-01	1.9867525546e-01	1.7674473732e-01	1.3445664364e-01	4.2288093684e-02	4.6084274976e-02	-2.5082241500e-01	-1.5148499010e-01	-7.5347467469e-03	-1.5525236347e-01	1.4771761672e-01
4                 	-3.6240357200e-02	-9.1309617611e-02	5.5069260412e-02	5.4896471904e-02	2.4131177410e-02	3.0765294494e-02	-3.3170585422e-03	-7.3189439011e-02	-5.1210900661e-02	-2.5071918306e-04	-5.1336260253e-02	5.1085541070e-02
5                 	7.3285406150e-02	-8.0955300443e-02	1.5424070659e-01	8.5206496330e-02	3.0364386948e-03	8.2170057635e-02	-3.9566809470e-02	-1.1759800352e-01	1.1031988067e-01	-8.5515515597e-04	1.0989230309e-01	-1.1074745825e-01
6                 	8.2569812230e-02	-1.9684595355e-01	2.7941576578e-01	1.6891370853e-01	6.0628905766e-02	1.0828480277e-01	-2.3827948500e-02	-2.3813085967e-01	1.2357454353e-01	-5.0966346023e-03	1.2102622623e-01	-1.2612286083e-01
7                 	3.9076273656e-02	-2.0168234015e-01	2.4075861381e-01	1.5891634729e-01	7.4979895615e-02	8.3936451677e-02	-4.4782780313e-03	-2.2122047698e-01	5.9131969381e-02	-5.1084594612e-03	5.6577739650e-02	-6.1686199112e-02
8                 	2.1510222937e-02	-1.6646488694e-01	1.8797510988e-01	1.2952188420e-01	5.7138948408e-02	7.2382935792e-02	-7.6219936920e-03	-1.7721999841e-01	3.3438397417e-02	-3.1056313255e-03	3.1885581754e-02	-3.4991213079e-02
9                 	3.1950251629e-02	-1.8714263123e-01	2.1909288286e-01	1.4707763565e-01	5.8889522020e-02	8.8188113633e-02	-1.4649295807e-02	-2.0311775705e-01	4.9270957093e-02	-3.1523373290e-03	4.7694788429e-02	-5.0847125758e-02
10                	3.5803963543e-02	-2.1532690382e-01	2.5113086737e-01	1.6835696990e-01	7.4235476814e-02	9.4121493083e-02	-9.9430081345e-03	-2.3322888560e-01	5.5198512173e-02	-4.2327725269e-03	5.3082125910e-02	-5.7314898436e-02
11                	3.0956500571e-02	-1.9898860575e-01	2.2994510632e-01	1.5592684232e-01	7.3817312004e-02	8.2109530320e-02	-4.1461091580e-03	-2.1446685603e-01	4.7843583260e-02	-4.1890649240e-03	4.5749050798e-02	-4.9938115722e-02
12                	3.0560324489e-02	-1.9029668246e-01	2.2085700695e-01	1.5003038996e-01	6.8817853732e-02	8.1212536231e-02	-6.1973412494e-03	-2.0557684470e-01	4.7044310166e-02	-3.5355230722e-03	4.5276548630e-02	-4.8812071703e-02
13                	3.3689348319e-02	-2.0615423429e-01	2.3984358261e-01	1.6214300712e-01	7.0416793899e-02	9.1726213222e-02	-1.0654709661e-02	-2.2299890845e-01	5.1563496169e-02	-3.4707731534e-03	4.9828109592e-02	-5.3298882745e-02
14                	3.0902656371e-02	-2.2231776352e-01	2.5322041989e-01	1.7285487631e-01	7.7885488913e-02	9.4969387394e-02	-8.5419492407e-03	-2.3776909171e-01	4.7681436968e-02	-3.7826110528e-03	4.5790131441e-02	-4.9572742494e-02
15                	2.7931982134e-02	-2.1432122427e-01	2.4225320641e-01	1.6663078874e-01	7.8624313797e-02	8.8006474938e-02	-4.6910805702e-03	-2.2828721534e-01	4.3471827032e-02	-3.8576311931e-03	4.1543011435e-02	-4.5400642628e-02
16                	2.9494870143e-02	-2.0942268580e-01	2.3891755595e-01	1.6373911733e-01	7.7264043211e-02	8.6475074118e-02	-4.6055154535e-03	-2.2417012088e-01	4.5783138803e-02	-3.7449345438e-03	4.3910671531e-02	-4.7655606075e-02
17                	3.2235295411e-02	-2.1851022887e-01	2.5074552428e-01	1.7088452416e-01	7.7231233946e-02	9.3653290210e-02	-8.2110281317e-03	-2.3462787657e-01	4.9628468920e-02	-3.7389717304e-03	4.7758983055e-02	-5.1497954785e-02
18                	3.0101453732e-02	-2.3267613415e-01	2.6277758788e-01	1.8065142188e-01	8.1412784375e-02	9.9238637509e-02	-8.9129265669e-03	-2.4772686102e-01	4.6415318339e-02	-3.7816089474e-03	4.4524513865e-02	-4.8306122813e-02
19                	2.7265159349e-02	-2.3416778188e-01	2.6143294123e-01	1.8141050201e-01	8.3493692464e-02	9.7916809550e-02	-7.2115585431e-03	-2.4780036156e-01	4.2323793141e-02	-3.7217701478e-03	4.0462908067e-02	-4.4184678215e-02
20                	2.7803773055e-02	-2.3054420720e-01	2.5834798025e-01	1.7929887990e-01	8.4449479207e-02	9.4849400691e-02	-5.1999607417e-03	-2.4444609372e-01	4.3308606243e-02	-3.6544491847e-03	4.1481381651e-02	-4.5135830836e-02
21                	3.1282205483e-02	-2.2879389210e-01	2.6007609759e-01	1.7892139646e-01	8.3367168611e-02	9.5554227853e-02	-6.0935296213e-03	-2.4443499484e-01	4.8403776188e-02	-3.6946110574e-03	4.6556470659e-02	-5.0251081717e-02
22                	3.1630296667e-02	-2.3730538283e-01	2.6893567950e-01	1.8509647966e-01	8.5014229797e-02	1.0008224986e-01	-7.5340100311e-03	-2.5312053117e-01	4.8765597578e-02	-3.7850796375e-03	4.6873057759e-02	-5.0658137397e-02
23                	2.9275470529e-02	-2.4560901649e-01	2.7488448702e-01	1.9089431636e-01	8.7063492382e-02	1.0383082398e-01	-8.3836657978e-03	-2.6024675175e-01	4.5185670208e-02	-3.8056951675e-03	4.3282822624e-02	-4.7088517792e-02
24                	2.7102262741e-02	-2.5021118825e-01	2.7731345099e-01	1.9409963575e-01	8.9617379378e-02	1.0448225637e-01	-7.4324384948e-03	-2.6376231962e-01	4.2076897228e-02	-3.7474406503e-03	4.0203176903e-02	-4.3950617553e-02
25                	2.8435571863e-02	-2.5021559569e-01	2.7865116755e-01	1.9480181190e-01	9.0420173030e-02	1.0438163887e-01	-6.9807329221e-03	-2.6443338162e-01	4.4151996724e-02	-3.7005879847e-03	4.2301702732e-02	-4.6002290717e-02
26                	3.0280534656e-02	-2.5125272814e-01	2.8153326280e-01	1.9612013992e-01	9.1715770237e-02	1.0440436968e-01	-6.3442997227e-03	-2.6639299547e-01	4.6890935880e-02	-3.7178220008e-03	4.5032024880e-02	-4.8749846881e-02
27                	3.1094865753e-02	-2.5227354818e-01	2.8336841393e-01	1.9732897670e-01	9.1954349344e-02	1.0537462736e-01	-6.7101390084e-03	-2.6782098106e-01	4.7984657018e-02	-3.7589038851e-03	4.6105205075e-02	-4.9864108961e-02
28                	2.9694998929e-02	-2.5533500654e-01	2.8503000547e-01	1.9943517387e-01	9.3303176518e-02	1.0613199736e-01	-6.4144104190e-03	-2.7018250601e-01	4.5846543477e-02	-3.7846355772e-03	4.3954225688e-02	-4.7738861266e-02
29                	2.8922919671e-02	-2.5775397632e-01	2.8667689599e-01	2.0143911621e-01	9.4096384030e-02	1.0734273218e-01	-6.6231740743e-03	-2.7221543616e-01	4.4695600372e-02	-3.7814500699e-03	4.2804875337e-02	-4.6586325407e-02
30                	2.8812206664e-02	-2.6116812095e-01	2.8998032762e-01	2.0407035182e-01	9.5775572666e-02	1.0829477916e-01	-6.2596032457e-03	-2.7557422429e-01	4.4597831743e-02	-3.7643486903e-03	4.2715657398e-02	-4.6480006088e-02
31                	2.9826167172e-02	-2.6111162442e-01	2.9093779160e-01	2.0465008478e-01	9.6045019065e-02	1.0860506571e-01	-6.2800233231e-03	-2.7602470801e-01	4.6141670061e-02	-3.7542553050e-03	4.4264542409e-02	-4.8018797713e-02
32                	3.0028575999e-02	-2.6270052348e-01	2.9272909948e-01	2.0601261692e-01	9.7226760066e-02	1.0878585685e-01	-5.7795483920e-03	-2.7771481148e-01	4.6410930213e-02	-3.7537541592e-03	4.4534053133e-02	-4.8287807293e-02
33                	3.0101483963e-02	-2.6268360461e-01	2.9278508857e-01	2.0634177325e-01	9.7445653057e-02	1.0889612019e-01	-5.7252335656e-03	-2.7773434659e-01	4.6476525454e-02	-3.7655750411e-03	4.4593737933e-02	-4.8359312974e-02
34                	2.9510715592e-02	-2.6426036642e-01	2.9377108201e-01	2.0737221637e-01	9.8469279668e-02	1.0890293670e-01	-5.2168285172e-03	-2.7901572422e-01	4.5605998081e-02	-3.7836404823e-03	4.3714177840e-02	-4.7497818322e-02
35                	2.9632481026e-02	-2.6304281125e-01	2.9267529227e-01	2.0690560602e-01	9.8316352162e-02	1.0858925386e-01	-5.1364508501e-03	-2.7785905176e-01	4.5795852841e-02	-3.7939924041e-03	4.3898856639e-02	-4.7692849043e-02
36                	2.9544723128e-02	-2.6377450296e-01	2.9331922609e-01	2.0752003293e-01	9.9122686907e-02	1.0839734602e-01	-4.6373295588e-03	-2.7854686452e-01	4.5656798898e-02	-3.7859369952e-03	4.3763830400e-02	-4.7549767395e-02
37                	2.9874462105e-02	-2.6247481747e-01	2.9234927958e-01	2.0702099957e-01	9.8909150176e-02	1.0811184939e-01	-4.6013496082e-03	-2.7741204853e-01	4.6137334293e-02	-3.7752465833e-03	4.4249711001e-02	-4.8024957585e-02
38                	2.9646439571e-02	-2.6337637312e-01	2.9302281269e-01	2.0763016344e-01	9.9595290092e-02	1.0803487335e-01	-4.2197916301e-03	-2.7819959290e-01	4.5807293770e-02	-3.7745318933e-03	4.3920027823e-02	-4.7694559716e-02
39                	2.9837698197e-02	-2.6160679214e-01	2.9144449034e-01	2.0676665126e-01	9.9200603295e-02	1.0756604796e-01	-4.1827223326e-03	-2.7652564124e-01	4.6075401033e-02	-3.7877300952e-03	4.4181535985e-02	-4.7969266080e-02
40                	2.9591663282e-02	-2.6205723981e-01	2.9164890309e-01	2.0700036661e-01	9.9760920499e-02	1.0723944611e-01	-3.7392628054e-03	-2.7685307145e-01	4.5705556449e-02	-3.7964771748e-03	4.3807317862e-02	-4.7603795036e-02
41                	2.9768927392e-02	-2.6005882691e-01	2.8982775430e-01	2.0587360627e-01	9.9226314282e-02	1.0664729198e-01	-3.7104888511e-03	-2.7494329061e-01	4.5969064975e-02	-3.7973161093e-03	4.4070406920e-02	-4.7867723029e-02
42                	2.9515364072e-02	-2.6041079358e-01	2.8992615765e-01	2.0595083132e-01	9.9664229518e-02	1.0628660180e-01	-3.3111861412e-03	-2.7516847562e-01	4.5614374250e-02	-3.7906707970e-03	4.3719038852e-02	-4.7509709649e-02
43                	2.9714627633e-02	-2.5812161377e-01	2.8783624140e-01	2.0463720947e-01	9.9033314163e-02	1.0560389531e-01	-3.2852905731e-03	-2.7297892758e-01	4.5892841874e-02	-3.7897144121e-03	4.3997984668e-02	-4.7787699080e-02
44                	2.9456513858e-02	-2.5807847595e-01	2.8753498981e-01	2.0442623805e-01	9.9362966731e-02	1.0506327132e-01	-2.8501522957e-03	-2.7280673288e-01	4.5500953624e-02	-3.7902427173e-03	4.3605832265e-02	-4.7396074983e-02
45                	2.9629363006e-02	-2.5537185165e-01	2.8500121465e-01	2.0275378610e-01	9.8574810706e-02	1.0417897539e-01	-2.8020823414e-03	-2.7018653315e-01	4.5775406604e-02	-3.7959821585e-03	4.3877415524e-02	-4.7673397683e-02
46                	2.9326104636e-02	-2.5511927265e-01	2.8444537729e-01	2.0230875179e-01	9.8804050835e-02	1.0350470095e-01	-2.3503250581e-03	-2.6978232497e-01	4.5340294605e-02	-3.7967881986e-03	4.3441900506e-02	-4.7238688705e-02
47                	2.9502502378e-02	-2.5209656040e-01	2.8159906278e-01	2.0034613493e-01	9.7867362455e-02	1.0247877247e-01	-2.3057050086e-03	-2.6684781159e-01	4.5616933149e-02	-3.7969247060e-03	4.3718470796e-02	-4.7515395502e-02
48                	2.9199218649e-02	-2.5154818639e-01	2.8074740504e-01	1.9962148019e-01	9.7975420512e-02	1.0164605968e-01	-1.8353195835e-03	-2.6614779572e-01	4.5160525942e-02	-3.7923505511e-03	4.3264350666e-02	-4.7056701217e-02
49                	2.9367874633e-02	-2.4818514222e-01	2.7755301686e-01	1.9734727931e-01	9.6887595001e-02	1.0045968431e-01	-1.7860446559e-03	-2.6286907954e-01	4.5439007380e-02	-3.7913828390e-03	4.3543315960e-02	-4.7334698799e-02
50                	2.9025099807e-02	-2.4737568524e-01	2.7640078504e-01	1.9637477094e-01	9.6849610118e-02	9.9525160825e-02	-1.3377753537e-03	-2.6188823514e-01	4.4947972304e-02	-3.7941647678e-03	4.3050889920e-02	-4.6845054688e-02
51                	2.9190944234e-02	-2.4377575580e-01	2.7296670003e-01	1.9391285607e-01	9.5630326936e-02	9.8282529133e-02	-1.3261010985e-03	-2.5837122792e-01	4.5213746245e-02	-3.7954897261e-03	4.3316001382e-02	-4.7111491108e-02
52                	2.8895158817e-02	-2.4280563194e-01	2.7170079075e-01	1.9281171930e-01	9.5506132246e-02	9.7305587054e-02	-8.9972740417e-04	-2.5725321135e-01	4.4773456758e-02	-3.7904729689e-03	4.2878220274e-02	-4.6668693242e-02
53                	2.9067043488e-02	-2.3912347185e-01	2.6819051534e-01	1.9022560067e-01	9.4205564993e-02	9.6020035674e-02	-9.0723534074e-04	-2.5365699359e-01	4.5064841757e-02	-3.7867711358e-03	4.3171456189e-02	-4.6958227325e-02
54                	2.8733735606e-02	-2.3816283511e-01	2.6689657072e-01	1.8908287174e-01	9.3998194005e-02	9.5084677736e-02	-5.4324186543e-04	-2.5252970292e-01	4.4574969708e-02	-3.7881811400e-03	4.2680879138e-02	-4.6469060278e-02
55                	2.8891628621e-02	-2.3451370857e-01	2.6340533719e-01	1.8651795791e-01	9.2628496883e-02	9.3889461030e-02	-6.3048207370e-04	-2.4895952288e-01	4.4824737479e-02	-3.7895952204e-03	4.2929939869e-02	-4.6719535089e-02
56                	2.8616946196e-02	-2.3363048183e-01	2.6224742802e-01	1.8544956600e-01	9.2417211289e-02	9.3032354711e-02	-3.0757171084e-04	-2.4793895493e-01	4.4414357698e-02	-3.7866255486e-03	4.2521044924e-02	-4.6307670473e-02
57                	2.8836008483e-02	-2.2998976655e-01	2.5882577503e-01	1.8291120838e-01	9.1008563164e-02	9.1902645218e-02	-4.4704102693e-04	-2.4440777079e-01	4.4779023997e-02	-3.7816138429e-03	4.2888217075e-02	-4.6669830918e-02
58                	2.8505300694e-02	-2.2926839743e-01	2.5777369813e-01	1.8193483960e-01	9.0802519836e-02	9.1132319766e-02	-1.6489996507e-04	-2.4352104778e-01	4.4292508397e-02	-3.7831062623e-03	4.2400955266e-02	-4.6184061528e-02
59                	2.8686515383e-02	-2.2594969533e-01	2.5463621072e-01	1.7959527388e-01	8.9489052920e-02	9.0106220958e-02	-3.0858401892e-04	-2.4029295302e-01	4.4563163209e-02	-3.7813803587e-03	4.2672473030e-02	-4.6453853389e-02
60                	2.8425623024e-02	-2.2527147900e-01	2.5369710202e-01	1.7866905854e-01	8.9249021790e-02	8.9420036753e-02	-8.5507481416e-05	-2.3948429051e-01	4.4171184487e-02	-3.7783496001e-03	4.2282009687e-02	-4.6060359287e-02
61                	2.8641051682e-02	-2.2201946583e-01	2.5066051751e-01	1.7641499703e-01	8.7936584085e-02	8.8478412942e-02	-2.7091442863e-04	-2.3633999167e-01	4.4522391557e-02	-3.7736308727e-03	4.2635576121e-02	-4.6409206993e-02
62                	2.8367520229e-02	-2.2156647677e-01	2.4993399700e-01	1.7567036494e-01	8.7774288001e-02	8.7896076935e-02	-6.0894466552e-05	-2.3575023688e-01	4.4132498992e-02	-3.7750335124e-03	4.2244982235e-02	-4.6020015748e-02
63                	2.8556465688e-02	-2.1860124196e-01	2.4715770764e-01	1.7361366089e-01	8.6556795466e-02	8.7056865423e-02	-2.5003497849e-04	-2.3287947480e-01	4.4402287694e-02	-3.7757488707e-03	4.2514413259e-02	-4.6290162129e-02
64                	2.8299841531e-02	-2.1830537763e-01	2.4660521916e-01	1.7299730167e-01	8.6448599408e-02	8.6548702260e-02	-5.0051426032e-05	-2.3245529839e-01	4.4012981060e-02	-3.7717660693e-03	4.2127098026e-02	-4.5898864095e-02
65                	2.8508117477e-02	-2.1527060752e-01	2.4377872500e-01	1.7093737694e-01	8.5192089122e-02	8.5745287818e-02	-2.7659934828e-04	-2.2952466626e-01	4.4348214891e-02	-3.7698760780e-03	4.2463276852e-02	-4.6233152930e-02
66                	2.8236156335e-02	-2.1518800434e-01	2.4342416068e-01	1.7046552435e-01	8.5152776096e-02	8.5312748250e-02	-7.9986076566e-05	-2.2930608251e-01	4.3941410357e-02	-3.7675365204e-03	4.2057642096e-02	-4.5825178617e-02
67                	2.8438434052e-02	-2.1246027310e-01	2.4089870715e-01	1.6861083251e-01	8.4014756480e-02	8.4596076033e-02	-2.9065977659e-04	-2.2667949013e-01	4.4242486863e-02	-3.7705755609e-03	4.2357199082e-02	-4.6127774643e-02
68                	2.8202686698e-02	-2.1242322421e-01	2.4062591090e-01	1.6822456187e-01	8.4000108571e-02	8.4224453296e-02	-1.1217236270e-04	-2.2652456755e-01	4.3879695071e-02	-3.7658478854e-03	4.1996771129e-02	-4.5762619014e-02
69                	2.8438485416e-02	-2.0971264373e-01	2.3815112915e-01	1.6642759008e-01	8.2837563038e-02	8.3590027039e-02	-3.7623200017e-04	-2.2393188644e-01	4.4268549986e-02	-3.7638857828e-03	4.2386607094e-02	-4.6150492877e-02
70                	2.8158197612e-02	-2.0997664235e-01	2.3813483996e-01	1.6625285560e-01	8.2922955597e-02	8.3329899999e-02	-2.0347220131e-04	-2.2405574115e-01	4.3837185194e-02	-3.7607522746e-03	4.1956809057e-02	-4.5717561332e-02
71                	2.8372886419e-02	-2.0757645584e-01	2.3594934226e-01	1.6464737727e-01	8.1883772001e-02	8.2763605274e-02	-4.3991663661e-04	-2.2176289905e-01	4.4147620922e-02	-3.7653664796e-03	4.2264937682e-02	-4.6030304161e-02
72                	2.8146836129e-02	-2.0783779339e-01	2.3598462952e-01	1.6450750037e-01	8.1977532491e-02	8.2529967876e-02	-2.7621769229e-04	-2.2191121145e-01	4.3808791640e-02	-3.7614693929e-03	4.1928056943e-02	-4.5689526336e-02
73                	2.8380100519e-02	-2.0541979359e-01	2.3379989411e-01	1.6293814997e-01	8.0927632919e-02	8.2010517052e-02	-5.4144206660e-04	-2.1960984385e-01	4.4185680375e-02	-3.7586354173e-03	4.2306362667e-02	-4.6064998084e-02
74                	2.8113326762e-02	-2.0598635628e-01	2.3409968304e-01	1.6300281697e-01	8.1125095807e-02	8.1877721160e-02	-3.7631267641e-04	-2.2004301966e-01	4.3777698232e-02	-3.7569911515e-03	4.1899202656e-02	-4.5656193808e-02
75                	2.8357340186e-02	-2.0373574365e-01	2.3209308384e-01	1.6154754325e-01	8.0129788538e-02	8.1417754708e-02	-6.4398308510e-04	-2.1791441375e-01	4.4135694732e-02	-3.7598759313e-03	4.2255756767e-02	-4.6015632698e-02
76                	2.8123935584e-02	-2.0422232158e-01	2.3234625716e-01	1.6164106377e-01	8.0347591615e-02	8.1293472153e-02	-4.7294026898e-04	-2.1828428937e-01	4.3768847756e-02	-3.7561040088e-03	4.1890795752e-02	-4.5646899760e-02
77                	2.8348712178e-02	-2.0209672967e-01	2.3044544184e-01	1.6028396206e-01	7.9415631982e-02	8.0868330082e-02	-7.2634904981e-04	-2.1627108576e-01	4.4112542515e-02	-3.7551967107e-03	4.2234944159e-02	-4.5990140870e-02
78                	2.8107604739e-02	-2.0276814788e-01	2.3087575262e-01	1.6048079649e-01	7.9664357803e-02	8.0816438686e-02	-5.7604044157e-04	-2.1682195025e-01	4.3766011440e-02	-3.7531297073e-03	4.1889446586e-02	-4.5642576293e-02
79                	2.8331281881e-02	-2.0073683709e-01	2.2906811897e-01	1.5921815628e-01	7.8772575530e-02	8.0445580753e-02	-8.3650261156e-04	-2.1490247803e-01	4.4087175816e-02	-3.7549148980e-03	4.2209718367e-02	-4.5964633265e-02
80                	2.8103205039e-02	-2.0148468791e-01	2.2958789295e-01	1.5948140753e-01	7.9071794614e-02	8.0409612914e-02	-6.6890914953e-04	-2.1553629043e-01	4.3722546758e-02	-3.7507713615e-03	4.1847161077e-02	-4.5597932439e-02
81                	2.8343181720e-02	-1.9946280903e-01	2.2780599075e-01	1.5821775048e-01	7.8184554230e-02	8.0033196250e-02	-9.2432100989e-04	-2.1363439989e-01	4.4100738962e-02	-3.7501767145e-03	4.2225650604e-02	-4.5975827319e-02
82                	2.8088074747e-02	-2.0033311918e-01	2.2842119393e-01	1.5855500860e-01	7.8546081993e-02	8.0008926605e-02	-7.3142230569e-04	-2.1437715656e-01	4.3723655471e-02	-3.7503279250e-03	4.1848491509e-02	-4.5598819434e-02
83                	2.8337444794e-02	-1.9833412381e-01	2.2667156860e-01	1.5734841243e-01	7.7680509870e-02	7.9667902559e-02	-9.9369634434e-04	-2.1250284621e-01	4.4087665417e-02	-3.7532703916e-03	4.2211030221e-02	-4.5964300612e-02
84                	2.8094990646e-02	-1.9919600521e-01	2.2729099586e-01	1.5769603117e-01	7.8031929402e-02	7.9664101768e-02	-8.1608618300e-04	-2.1324350054e-01	4.3707012068e-02	-3.7495475806e-03	4.1832238278e-02	-4.5581785858e-02
85                	2.8321806181e-02	-1.9732770184e-01	2.2564950802e-01	1.5655601135e-01	7.7218492077e-02	7.9337519271e-02	-1.0595135974e-03	-2.1148860493e-01	4.4054729821e-02	-3.7495905328e-03	4.2179934555e-02	-4.5929525087e-02
86                	2.8090796630e-02	-1.9825013577e-01	2.2634093240e-01	1.5694733128e-01	7.7595509457e-02	7.9351821818e-02	-8.7815618038e-04	-2.1229553408e-01	4.3709105102e-02	-3.7479063534e-03	4.1835151926e-02	-4.5583058279e-02
87                	2.8337167416e-02	-1.9635062145e-01	2.2468778887e-01	1.5581840106e-01	7.6784517822e-02	7.9033883243e-02	-1.1246827103e-03	-2.1051920516e-01	4.4077420407e-02	-3.7517490238e-03	4.2201545895e-02	-4.5953294919e-02
88                	2.8086890614e-02	-1.9731212850e-01	2.2539901912e-01	1.5625092768e-01	7.7203215851e-02	7.9047711830e-02	-9.2224798912e-04	-2.1135557381e-01	4.3682003291e-02	-3.7482215727e-03	4.1807892505e-02	-4.5556114077e-02
89                	2.8310156509e-02	-1.9545585631e-01	2.2376601282e-01	1.5512779916e-01	7.6403917042e-02	7.8723882117e-02	-1.1599825374e-03	-2.0961093456e-01	4.4026998772e-02	-3.7493858056e-03	4.2152305869e-02	-4.5901691675e-02
90                	2.8076442278e-02	-1.9643335148e-01	2.2450979376e-01	1.5557459893e-01	7.6805706433e-02	7.8768892494e-02	-9.8159303043e-04	-2.1047157262e-01	4.3681733981e-02	-3.7460076960e-03	4.1808730133e-02	-4.5554737829e-02
91                	2.8314578700e-02	-1.9467589614e-01	2.2299047484e-01	1.5453926581e-01	7.6058361822e-02	7.8480903991e-02	-1.2112710845e-03	-2.0883318549e-01	4.4039388998e-02	-3.7497607922e-03	4.2164508602e-02	-4.5914269394e-02
92                	2.8081199200e-02	-1.9564046416e-01	2.2372166336e-01	1.5497857341e-01	7.6465803771e-02	7.8512769635e-02	-1.0234829322e-03	-2.0968106376e-01	4.3656567247e-02	-3.7461517593e-03	4.1783491368e-02	-4.5529643127e-02
93                	2.8325904597e-02	-1.9389769064e-01	2.2222359524e-01	1.5393178943e-01	7.5710688425e-02	7.8221101007e-02	-1.2552062907e-03	-2.0806064294e-01	4.4053697365e-02	-3.7468899500e-03	4.2180252390e-02	-4.5927142340e-02
94                	2.8065290244e-02	-1.9489951611e-01	2.2296480635e-01	1.5443467667e-01	7.6162805292e-02	7.8271871378e-02	-1.0545330428e-03	-2.0893216123e-01	4.3649856507e-02	-3.7446693089e-03	4.1777521852e-02	-4.5522191161e-02
95                	2.8299656207e-02	-1.9308866286e-01	2.2138831906e-01	1.5337115994e-01	7.5407056586e-02	7.7964103358e-02	-1.2785233860e-03	-2.0723849096e-01	4.3994428659e-02	-3.7473431314e-03	4.2120757093e-02	-4.5868100225e-02
96                	2.8074472994e-02	-1.9410685649e-01	2.2218132949e-01	1.5385821099e-01	7.5856039183e-02	7.8002171804e-02	-1.0730663105e-03	-2.0814409299e-01	4.3651051516e-02	-3.7453685762e-03	4.1778367228e-02	-4.5523735804e-02
97                	2.8294850759e-02	-1.9237610442e-01	2.2067095518e-01	1.5285006718e-01	7.5138088783e-02	7.7711978396e-02	-1.2869448064e-03	-2.0652352980e-01	4.3991210609e-02	-3.7448337426e-03	4.2118793738e-02	-4.5863627481e-02
98                	2.8054291893e-02	-1.9341270583e-01	2.2146699772e-01	1.5336255439e-01	7.5591069714e-02	7.7771484680e-02	-1.0902074830e-03	-2.0743985177e-01	4.3619879375e-02	-3.7452537922e-03	4.1747252479e-02	-4.5492506271e-02
99                	2.8304877342e-02	-1.9168531671e-01	2.1999019405e-01	1.5235835235e-01	7.4853225889e-02	7.7505126461e-02	-1.3259502862e-03	-2.0583775538e-01	4.4000857010e-02	-3.7456054150e-03	4.2128054303e-02	-4.5873659718e-02
100               	2.8057757909e-02	-1.9275817324e-01	2.2081593115e-01	1.5291688388e-01	7.5340564343e-02	7.7576319538e-02	-1.1178775976e-03	-2.0678705220e-01	4.3616211551e-02	-3.7436114196e-03	4.1744405842e-02	-4.5488017261e-02
101               	2.8292827819e-02	-1.9105994884e-01	2.1935277665e-01	1.5191594857e-01	7.4608382325e-02	7.7307566248e-02	-1.3495919614e-03	-2.0520636275e-01	4.3974876260e-02	-3.7433122250e-03	4.2103220148e-02	-4.5846532373e-02
102               	2.8040035361e-02	-1.9226892216e-01	2.2030895752e-01	1.5252346820e-01	7.5123620992e-02	7.7399847212e-02	-1.1381131102e-03	-2.0628893984e-01	4.3593215417e-02	-3.7432782537e-03	4.1721576290e-02	-4.5464854544e-02
103               	2.8289918593e-02	-1.9057201658e-01	2.1886193517e-01	1.5157952497e-01	7.4425993038e-02	7.7153531934e-02	-1.3637694477e-03	-2.0471697587e-01	4.3970060886e-02	-3.7447360549e-03	4.2097692859e-02	-4.5842428914e-02
104               	2.8056228474e-02	-1.9169242934e-01	2.1974865781e-01	1.5215331375e-01	7.4916601461e-02	7.7236712291e-02	-1.1600554150e-03	-2.0572054357e-01	4.3605408068e-02	-3.7435053887e-03	4.1733655373e-02	-4.5477160762e-02
105               	2.8298840485e-02	-1.9011239723e-01	2.1841123771e-01	1.5122617505e-01	7.4223235404e-02	7.7002939651e-02	-1.3898521236e-03	-2.0426181747e-01	4.3987868625e-02	-3.7431000656e-03	4.2116318593e-02	-4.5859418658e-02
106               	2.8048477266e-02	-1.9135400621e-01	2.1940248347e-01	1.5188750006e-01	7.4751179123e-02	7.7136320942e-02	-1.1925709096e-03	-2.0537824484e-01	4.3606636008e-02	-3.7435790042e-03	4.1734846506e-02	-4.5478425510e-02
107               	2.8277819859e-02	-1.8977145092e-01	2.1804927078e-01	1.5098104280e-01	7.4068857464e-02	7.6912185334e-02	-1.4216639350e-03	-2.0391036085e-01	4.3940179915e-02	-3.7433773771e-03	4.2068491227e-02	-4.5811868604e-02
108               	2.8059844268e-02	-1.9102941159e-01	2.1908925586e-01	1.5163458786e-01	7.4596859511e-02	7.7037728352e-02	-1.2204344207e-03	-2.0505933373e-01	4.3611452680e-02	-3.7430321354e-03	4.1739936612e-02	-4.5482968748e-02
109               	2.8285185824e-02	-1.8952749458e-01	2.1781268040e-01	1.5076453596e-01	7.3948622316e-02	7.6815913640e-02	-1.4336456624e-03	-2.0367008749e-01	4.3955876328e-02	-3.7420723860e-03	4.2084840135e-02	-4.5826912521e-02
110               	2.8049397985e-02	-1.9077513911e-01	2.1882453710e-01	1.5142832688e-01	7.4472304795e-02	7.6956022088e-02	-1.2418586466e-03	-2.0479983810e-01	4.3604154322e-02	-3.7432955136e-03	4.1732506565e-02	-4.5475802079e-02
111               	2.8284086793e-02	-1.8929910982e-01	2.1758319661e-01	1.5058640230e-01	7.3824953583e-02	7.6761448715e-02	-1.4682475659e-03	-2.0344115322e-01	4.3952120269e-02	-3.7438171113e-03	4.2080211713e-02	-4.5824028825e-02
112               	2.8061156343e-02	-1.9055343966e-01	2.1861459601e-01	1.5126247077e-01	7.4370544623e-02	7.6891926142e-02	-1.2606907596e-03	-2.0458401784e-01	4.3615910588e-02	-3.7428069918e-03	4.1744507092e-02	-4.5487314084e-02
113               	2.8286713228e-02	-1.8910992077e-01	2.1739663400e-01	1.5041649831e-01	7.3734662444e-02	7.6681835870e-02	-1.4735867130e-03	-2.0325327738e-01	4.3945987653e-02	-3.7406629528e-03	4.2075656177e-02	-4.5816319130e-02
114               	2.8040446887e-02	-1.9040405917e-01	2.1844450606e-01	1.5111147818e-01	7.4286261481e-02	7.6825216701e-02	-1.2694776101e-03	-2.0442428261e-01	4.3583346728e-02	-3.7422111662e-03	4.1712241145e-02	-4.5454452311e-02
115               	2.8277371983e-02	-1.8890894332e-01	2.1718631531e-01	1.5028757967e-01	7.3652610743e-02	7.6634968927e-02	-1.4911790922e-03	-2.0304762932e-01	4.3930973987e-02	-3.7426104711e-03	4.2059668751e-02	-4.5802279222e-02
116               	2.8050463394e-02	-1.9015877241e-01	2.1820923580e-01	1.5096295975e-01	7.4197674013e-02	7.6765285741e-02	-1.2838058644e-03	-2.0418400410e-01	4.3584343189e-02	-3.7422092699e-03	4.1713238554e-02	-4.5455447824e-02
117               	2.8293082732e-02	-1.8878997946e-01	2.1708306219e-01	1.5015358770e-01	7.3573150642e-02	7.6580437054e-02	-1.5036432059e-03	-2.0293652083e-01	4.3959181920e-02	-3.7403332619e-03	4.2089015289e-02	-4.5829348551e-02
118               	2.8041623164e-02	-1.9016710715e-01	2.1820873032e-01	1.5090272903e-01	7.4149430148e-02	7.6753298881e-02	-1.3019343666e-03	-2.0418791874e-01	4.3590928579e-02	-3.7407833565e-03	4.1720536901e-02	-4.5461320257e-02
119               	2.8284276618e-02	-1.8870567433e-01	2.1698995095e-01	1.5009367738e-01	7.3513988274e-02	7.6579689109e-02	-1.5328504176e-03	-2.0284781264e-01	4.3945870177e-02	-3.7414012737e-03	4.2075169541e-02	-4.5816570814e-02
120               	2.8058764366e-02	-1.9009923242e-01	2.1815799678e-01	1.5082771502e-01	7.4088752993e-02	7.6738962027e-02	-1.3251045169e-03	-2.0412861460e-01	4.3599887914e-02	-3.7408613658e-03	4.1729457231e-02	-4.5470318597e-02
121               	2.8284961692e-02	-1.8871120629e-01	2.1699616799e-01	1.5004525507e-01	7.3489569190e-02	7.6555685877e-02	-1.5330583433e-03	-2.0285368714e-01	4.3958490006e-02	-3.7397988597e-03	4.2088590576e-02	-4.5828389436e-02
122               	2.8046668395e-02	-1.9003069255e-01	2.1807736094e-01	1.5076035415e-01	7.4042291675e-02	7.6718062474e-02	-1.3378853998e-03	-2.0405402675e-01	4.3593482499e-02	-3.7403032770e-03	4.1723330860e-02	-4.5463634138e-02
123               	2.8287936286e-02	-1.8867490124e-01	2.1696283753e-01	1.4999810717e-01	7.3447990450e-02	7.6550116719e-02	-1.5510631344e-03	-2.0281886938e-01	4.3956834581e-02	-3.7414275214e-03	4.2086120821e-02	-4.5827548342e-02
124               	2.8055878446e-02	-1.9000123212e-01	2.1805711057e-01	1.5072630908e-01	7.4021788627e-02	7.6704520456e-02	-1.3413659149e-03	-2.0402917135e-01	4.3599250971e-02	-3.7407451999e-03	4.1728878371e-02	-4.5469623571e-02
125               	2.8289135534e-02	-1.8858114429e-01	2.1687027982e-01	1.4991878421e-01	7.3393783647e-02	7.6525000566e-02	-1.5656084595e-03	-2.0272571205e-01	4.3955426195e-02	-3.7390770191e-03	4.2085887685e-02	-4.5824964704e-02
126               	2.8048273368e-02	-1.9008077442e-01	2.1812904779e-01	1.5072916550e-01	7.4009422755e-02	7.6719742747e-02	-1.3551599959e-03	-2.0410491110e-01	4.3599112802e-02	-3.7407169683e-03	4.1728754318e-02	-4.5469471287e-02
127               	2.8290029840e-02	-1.8864347084e-01	2.1693350068e-01	1.4994346925e-01	7.3388597860e-02	7.6554871391e-02	-1.5831367654e-03	-2.0278848576e-01	4.3962263405e-02	-3.7420576496e-03	4.2091234580e-02	-4.5833292229e-02