# Force and moment coefficients
# dragDir         : (1.0000000000e+00 0.0000000000e+00 0.0000000000e+00)
# sideDir         : (0.0000000000e+00 0.0000000000e+00 -1.0000000000e+00)
# liftDir         : (0.0000000000e+00 1.0000000000e+00 0.0000000000e+00)
# rollAxis        : (1.0000000000e+00 0.0000000000e+00 0.0000000000e+00)
# pitchAxis       : (0.0000000000e+00 0.0000000000e+00 -1.0000000000e+00)
# yawAxis         : (0.0000000000e+00 1.0000000000e+00 0.0000000000e+00)
# magUInf         : 3.0000000000e+00
# lRef            : 1.0000000000e-01
# Aref            : 3.0000000000e-02
# CofR            : (0.0000000000e+00 0.0000000000e+00 0.0000000000e+00)
#
# Time            	Cd                	Cd(f)             	Cd(r)             	Cl                	Cl(f)             	Cl(r)             	CmPitch           	CmRoll            	CmYaw             	Cs                	Cs(f)             	Cs(r)             
1                 	6.8946143886e-01	1.8864569525e-01	5.0081574360e-01	1.0828508917e-01	-1.5424520582e-01	2.6253029498e-01	-2.0838775040e-01	-1.5608502417e-01	1.0241659957e+00	4.6624248604e-04	1.0243991170e+00	-1.0239328745e+00
2                 	1.5052534730e-01	-2.2066847216e-01	3.7119381945e-01	2.0647535033e-01	8.8832963904e-02	1.1764238642e-01	-1.4404711260e-02	-2.9593114580e-01	2.2684417204e-01	-8.0551170867e-03	2.2281661350e-01	-2.3087173058e-01
3                 	-1.4082788986e-01	-2.9580986224e-01	1.5498197238e-01	1.5939931561e-01	1.5191275712e-01	7.4865584904e-03	7.2213099315e-02	-2.2539591731e-01	-2.0442206221e-01	-7.2167580248e-03	-2.0803044122e-01	2.0081368320e-01
4                 	7.2147256859e-03	-8.0210814232e-02	8.7425539918e-02	6.2246474733e-02	2.0193909785e-02	4.2052564948e-02	-1.0929327581e-02	-8.3818177075e-02	1.4298302763e-02	-6.9341027702e-04	1.3951597625e-02	-1.4645007902e-02
5                 	1.3255406752e-01	-7.0336211914e-02	2.0289027943e-01	9.7982958155e-02	4.6834487586e-03	9.3299509396e-02	-4.4308030319e-02	-1.3661324567e-01	1.9950275334e-01	-9.5679444725e-04	1.9902435611e-01	-1.9998115056e-01
6                 	9.9926155266e-02	-1.7527725537e-01	2.7520341063e-01	1.5973161694e-01	6.4912407146e-02	9.4819209791e-02	-1.4953401322e-02	-2.2524033300e-01	1.5036019503e-01	-4.6988637886e-03	1.4801076313e-01	-1.5270962692e-01
7                 	4.5932685486e-02	-1.8388890264e-01	2.2982158812e-01	1.4875797784e-01	7.0496475234e-02	7.8261502604e-02	-3.8825136848e-03	-2.0685524538e-01	6.9858293130e-02	-4.8016049379e-03	6.7457490661e-02	-7.2259095599e-02
8                 	4.2829675006e-02	-1.6037296342e-01	2.0320263843e-01	1.3248927772e-01	5.1750582015e-02	8.0738695706e-02	-1.4494056845e-02	-1.8178780093e-01	6.5580181468e-02	-3.1976468729e-03	6.3981358032e-02	-6.7179004905e-02
9                 	5.1226550087e-02	-1.7771092772e-01	2.2893747781e-01	1.4725210372e-01	6.1387141487e-02	8.5864962236e-02	-1.2238910375e-02	-2.0332420276e-01	7.8632043863e-02	-3.3570502115e-03	7.6953518757e-02	-8.0310568969e-02
10                	4.6035681247e-02	-1.8720494159e-01	2.3324062284e-01	1.5212615824e-01	7.3660688858e-02	7.8465469378e-02	-2.4023902598e-03	-2.1022278222e-01	7.0988228001e-02	-4.1571519746e-03	6.8909652014e-02	-7.3066803988e-02
11                	4.1607749691e-02	-1.6955168446e-01	2.1115943415e-01	1.3871072437e-01	6.7463397874e-02	7.1247326491e-02	-1.8919643083e-03	-1.9035555931e-01	6.4021913220e-02	-3.9731762022e-03	6.2035325118e-02	-6.6008501321e-02
12                	4.5007413404e-02	-1.6290530016e-01	2.0791271356e-01	1.3535036201e-01	6.0863289130e-02	7.4487072882e-02	-6.8118918759e-03	-1.8540900686e-01	6.8727078907e-02	-3.5508032894e-03	6.6951677263e-02	-7.0502480552e-02
13                	4.5443535606e-02	-1.7251815470e-01	2.1796169031e-01	1.4224510420e-01	6.5083181736e-02	7.7161922466e-02	-6.0393703646e-03	-1.9523992251e-01	6.9435162135e-02	-3.6452376190e-03	6.7612543326e-02	-7.1257780945e-02
14                	4.0220308974e-02	-1.7369308235e-01	2.1391339132e-01	1.4139006243e-01	6.8942479246e-02	7.2447583186e-02	-1.7525519704e-03	-1.9380323683e-01	6.1936547014e-02	-3.8505394807e-03	6.0011277274e-02	-6.3861816755e-02
15                	3.7694618194e-02	-1.6342922056e-01	2.0112383876e-01	1.3335348256e-01	6.5721328603e-02	6.7632153953e-02	-9.5541267525e-04	-1.8227652966e-01	5.8230513111e-02	-3.8354191968e-03	5.6312803512e-02	-6.0148222709e-02
16                	3.9047017590e-02	-1.5973778248e-01	1.9878480007e-01	1.3118054560e-01	6.3488368122e-02	6.7692177475e-02	-2.1019046765e-03	-1.7926129127e-01	6.0146351637e-02	-3.7988826003e-03	5.8246910337e-02	-6.2045792938e-02
17                	3.9435136314e-02	-1.5839482744e-01	1.9782996375e-01	1.3030576010e-01	6.3882293265e-02	6.6423466837e-02	-1.2705867863e-03	-1.7811239559e-01	6.0664388862e-02	-3.8328820437e-03	5.8747947840e-02	-6.2580829883e-02
18                	3.7640732776e-02	-1.5426407269e-01	1.9190480547e-01	1.2680644732e-01	6.3340365346e-02	6.3466081977e-02	-6.2858315790e-05	-1.7308443908e-01	5.8021159836e-02	-3.8129744342e-03	5.6114672619e-02	-5.9927647053e-02
19                	3.6532782234e-02	-1.4935773525e-01	1.8589051749e-01	1.2288421761e-01	6.0759247901e-02	6.2124969707e-02	-6.8286090287e-04	-1.6762412637e-01	5.6405417949e-02	-3.7399687718e-03	5.4535433563e-02	-5.8275402335e-02
20                	3.6865151363e-02	-1.4923964628e-01	1.8610479765e-01	1.2278886327e-01	5.9661621227e-02	6.3127242047e-02	-1.7328104100e-03	-1.6767222197e-01	5.6892067964e-02	-3.7394800007e-03	5.5022327964e-02	-5.8761807965e-02
21                	3.6633418721e-02	-1.4759168280e-01	1.8422510152e-01	1.2148605304e-01	5.9569419653e-02	6.1916633386e-02	-1.1736068663e-03	-1.6590839216e-01	5.6547287270e-02	-3.7965036824e-03	5.4649035429e-02	-5.8445539111e-02
22                	3.5565510995e-02	-1.4231739026e-01	1.7788290126e-01	1.1739941563e-01	5.8795459605e-02	5.8603956021e-02	9.5751792290e-05	-1.6010014576e-01	5.4982447671e-02	-3.8122306829e-03	5.3076332330e-02	-5.6888563013e-02
23                	3.5048452236e-02	-1.3736147352e-01	1.7240992576e-01	1.1369631002e-01	5.7050794224e-02	5.6645515798e-02	2.0263921336e-04	-1.5488569964e-01	5.4217345739e-02	-3.7820997269e-03	5.2326295875e-02	-5.6108395602e-02
24                	3.5180782509e-02	-1.3548237308e-01	1.7066315559e-01	1.1219897140e-01	5.5535024040e-02	5.6663947356e-02	-5.6446165793e-04	-1.5307276434e-01	5.4408262333e-02	-3.7603923584e-03	5.2528066154e-02	-5.6288458512e-02
25                	3.5054967624e-02	-1.3553601724e-01	1.7059098487e-01	1.1206497744e-01	5.5012794450e-02	5.7052182990e-02	-1.0196942697e-03	-1.5306350105e-01	5.4211580898e-02	-3.7569277639e-03	5.2333117016e-02	-5.6090044780e-02
26                	3.4462589662e-02	-1.3384232052e-01	1.6830491018e-01	1.1066517239e-01	5.4679318505e-02	5.5985853889e-02	-6.5326769198e-04	-1.5107361535e-01	5.3335699959e-02	-3.7519993236e-03	5.1459700297e-02	-5.5211699621e-02
27                	3.4050013074e-02	-1.3003771207e-01	1.6408772514e-01	1.0781564893e-01	5.3696597412e-02	5.4119051517e-02	-2.1122705279e-04	-1.4706271861e-01	5.2737981715e-02	-3.7468305077e-03	5.0864566461e-02	-5.4611396969e-02
28                	3.3984338753e-02	-1.2677395505e-01	1.6075829380e-01	1.0538365157e-01	5.2484365912e-02	5.2899285662e-02	-2.0745987528e-04	-1.4376612443e-01	5.2637968620e-02	-3.7544826458e-03	5.0760727297e-02	-5.4515209943e-02
29                	3.3955343508e-02	-1.2549577950e-01	1.5945112301e-01	1.0434250972e-01	5.1653395102e-02	5.2689114621e-02	-5.1785975970e-04	-1.4247345126e-01	5.2594135106e-02	-3.7607190419e-03	5.0713775585e-02	-5.4474494627e-02
30                	3.3742185746e-02	-1.2412683142e-01	1.5786901717e-01	1.0320998269e-01	5.0984481682e-02	5.2225501004e-02	-6.2050966077e-04	-1.4099792429e-01	5.2276616352e-02	-3.7493432748e-03	5.0401944714e-02	-5.4151287989e-02
31                	3.3465846065e-02	-1.2217657514e-01	1.5564242120e-01	1.0167051017e-01	5.0369613701e-02	5.1300896469e-02	-4.6564138377e-04	-1.3890949817e-01	5.1865349676e-02	-3.7302038702e-03	5.0000247741e-02	-5.3730451611e-02
32                	3.3327791608e-02	-1.1991927595e-01	1.5324706756e-01	9.9929190379e-02	4.9574383304e-02	5.0354807075e-02	-3.9021188556e-04	-1.3658317176e-01	5.1663344862e-02	-3.7217106286e-03	4.9802489547e-02	-5.3524200176e-02
33                	3.3233552795e-02	-1.1764804612e-01	1.5088159891e-01	9.8184065688e-02	4.8671741064e-02	4.9512324624e-02	-4.2029178030e-04	-1.3426482252e-01	5.1528687260e-02	-3.7275674090e-03	4.9664903556e-02	-5.3392470965e-02
34                	3.3140436480e-02	-1.1577111135e-01	1.4891154783e-01	9.6698292497e-02	4.7873235818e-02	4.8825056678e-02	-4.7591042996e-04	-1.3234132959e-01	5.1394000795e-02	-3.7353310935e-03	4.9526335249e-02	-5.3261666342e-02
35                	3.3046338705e-02	-1.1405639466e-01	1.4710273337e-01	9.5345108219e-02	4.7209553952e-02	4.8135554267e-02	-4.6300015762e-04	-1.3057956402e-01	5.1251917770e-02	-3.7345441008e-03	4.9384645720e-02	-5.3119189821e-02
36                	3.2957010979e-02	-1.1191639363e-01	1.4487340461e-01	9.3682489069e-02	4.6475118987e-02	4.7207370082e-02	-3.6612554766e-04	-1.2839489912e-01	5.1122380165e-02	-3.7272641498e-03	4.9258748090e-02	-5.2986012240e-02
37                	3.2861533249e-02	-1.0967907609e-01	1.4254060934e-01	9.1935793084e-02	4.5634877549e-02	4.6300915535e-02	-3.3301899279e-04	-1.2610984271e-01	5.0984215505e-02	-3.7205147935e-03	4.9123958109e-02	-5.2844472902e-02
38                	3.2779237774e-02	-1.0761608726e-01	1.4039532504e-01	9.0318977204e-02	4.4812968811e-02	4.5506008393e-02	-3.4651979105e-04	-1.2400570615e-01	5.0862975591e-02	-3.7183465913e-03	4.9003802296e-02	-5.2722148887e-02
39                	3.2712250226e-02	-1.0562612371e-01	1.3833837393e-01	8.8763819410e-02	4.4031135056e-02	4.4732684354e-02	-3.5077464879e-04	-1.2198224882e-01	5.0766907359e-02	-3.7196461239e-03	4.8907084297e-02	-5.2626730421e-02
40                	3.2668443555e-02	-1.0359712252e-01	1.3626556607e-01	8.7207859477e-02	4.3271331105e-02	4.3936528373e-02	-3.3259863389e-04	-1.1993134429e-01	5.0704217448e-02	-3.7208761179e-03	4.8843779389e-02	-5.2564655507e-02
41                	3.2618328013e-02	-1.0158192769e-01	1.3420025570e-01	8.5670439919e-02	4.2501098498e-02	4.3169341421e-02	-3.3412146155e-04	-1.1789109169e-01	5.0631217644e-02	-3.7199698166e-03	4.8771232736e-02	-5.2491202552e-02
42                	3.2571457242e-02	-9.9742582933e-02	1.3231404018e-01	8.4269209505e-02	4.1757851872e-02	4.2511357633e-02	-3.7675288078e-04	-1.1602831155e-01	5.0561404905e-02	-3.7172456995e-03	4.8702782055e-02	-5.2420027754e-02
43                	3.2527119275e-02	-9.8017999407e-02	1.3054511868e-01	8.2971456487e-02	4.1040448700e-02	4.1931007787e-02	-4.4527954322e-04	-1.1428155905e-01	5.0495078510e-02	-3.7145752944e-03	4.8637790863e-02	-5.2352366157e-02
44                	3.2494799787e-02	-9.6371989450e-02	1.2886678924e-01	8.1741312213e-02	4.0361022434e-02	4.1380289779e-02	-5.0963367273e-04	-1.1261938934e-01	5.0447082854e-02	-3.7130142334e-03	4.8590575737e-02	-5.2303589971e-02
45                	3.2464070610e-02	-9.4844693220e-02	1.2730876383e-01	8.0604529951e-02	3.9713601463e-02	4.0890928488e-02	-5.8866351266e-04	-1.1107672852e-01	5.0400483437e-02	-3.7121247129e-03	4.8544421081e-02	-5.2256545794e-02
46                	3.2443895899e-02	-9.3491850020e-02	1.2593574592e-01	7.9606203359e-02	3.9120128674e-02	4.0486074685e-02	-6.8297300548e-04	-1.0971379797e-01	5.0368036262e-02	-3.7112176624e-03	4.8512427431e-02	-5.2223645093e-02
47                	3.2426926691e-02	-9.2279140884e-02	1.2470606757e-01	7.8719432507e-02	3.8568076075e-02	4.0151356432e-02	-7.9164017835e-04	-1.0849260423e-01	5.0339276705e-02	-3.7098291134e-03	4.8484362148e-02	-5.2194191261e-02
48                	3.2417505652e-02	-9.1178241032e-02	1.2359574668e-01	7.7920297682e-02	3.8065842295e-02	3.9854455386e-02	-8.9430654535e-04	-1.0738699386e-01	5.0322027387e-02	-3.7080438131e-03	4.8468005480e-02	-5.2176049293e-02
49                	3.2404027931e-02	-9.0159192485e-02	1.2256322042e-01	7.7180035110e-02	3.7595224964e-02	3.9584810145e-02	-9.9479259058e-04	-1.0636120645e-01	5.0299170931e-02	-3.7061941382e-03	4.8446073862e-02	-5.2152268000e-02
50                	3.2394389209e-02	-8.9244590594e-02	1.2163897980e-01	7.6517666415e-02	3.7168170645e-02	3.9349495770e-02	-1.0906625628e-03	-1.0544178520e-01	5.0282018011e-02	-3.7044716932e-03	4.8429782165e-02	-5.2134253858e-02
51                	3.2384322412e-02	-8.8420022217e-02	1.2080434463e-01	7.5922648868e-02	3.6771314023e-02	3.9151334845e-02	-1.1900104110e-03	-1.0461218342e-01	5.0263787204e-02	-3.7029896306e-03	4.8412292389e-02	-5.2115282020e-02
52                	3.2381982648e-02	-8.7680278970e-02	1.2006226162e-01	7.5393517551e-02	3.6415741446e-02	3.8977776105e-02	-1.2810173296e-03	-1.0387127029e-01	5.0257347934e-02	-3.7017849907e-03	4.8406455438e-02	-5.2108240429e-02
53                	3.2378061402e-02	-8.6984244767e-02	1.1936230617e-01	7.4896794318e-02	3.6082476721e-02	3.8814317597e-02	-1.3659204377e-03	-1.0317327547e-01	5.0248815480e-02	-3.7007455306e-03	4.8398442714e-02	-5.2099188245e-02
54                	3.2377285066e-02	-8.6329590305e-02	1.1870687537e-01	7.4431890231e-02	3.5777721626e-02	3.8654168604e-02	-1.4382234891e-03	-1.0251823284e-01	5.0245219990e-02	-3.6996820611e-03	4.8395378959e-02	-5.2095061020e-02
55                	3.2372460626e-02	-8.5696995427e-02	1.1806945605e-01	7.3982032995e-02	3.5483265483e-02	3.8498767512e-02	-1.5077510143e-03	-1.0188322574e-01	5.0235480097e-02	-3.6984272437e-03	4.8386266475e-02	-5.2084693719e-02
56                	3.2371363733e-02	-8.5095906376e-02	1.1746727011e-01	7.3557731625e-02	3.5209322396e-02	3.8348409229e-02	-1.5695434168e-03	-1.0128158824e-01	5.0231459758e-02	-3.6970744467e-03	4.8382922535e-02	-5.2079996981e-02
57                	3.2368246638e-02	-8.4506272718e-02	1.1687451936e-01	7.3142463332e-02	3.4940653302e-02	3.8201810030e-02	-1.6305783641e-03	-1.0069039604e-01	5.0224566669e-02	-3.6958727221e-03	4.8376630308e-02	-5.2072503030e-02
58                	3.2369306619e-02	-8.3932681987e-02	1.1630198861e-01	7.2741599194e-02	3.4687320372e-02	3.8054278822e-02	-1.6834792254e-03	-1.0011733530e-01	5.0224252928e-02	-3.6950300241e-03	4.8376737916e-02	-5.2071767940e-02
59                	3.2367266193e-02	-8.3354461929e-02	1.1572172812e-01	7.2337696536e-02	3.4433443846e-02	3.7904252690e-02	-1.7354044218e-03	-9.9538095025e-02	5.0219072696e-02	-3.6944754340e-03	4.8371834979e-02	-5.2066310413e-02
60                	3.2368197811e-02	-8.2782166242e-02	1.1515036405e-01	7.1939492395e-02	3.4189046229e-02	3.7750446166e-02	-1.7806999687e-03	-9.8966265148e-02	5.0218355181e-02	-3.6939695050e-03	4.8371370428e-02	-5.2065339933e-02
61                	3.2365749380e-02	-8.2200131481e-02	1.1456588086e-01	7.1533081136e-02	3.3939353031e-02	3.7593728105e-02	-1.8271875368e-03	-9.8383006171e-02	5.0212419977e-02	-3.6933054130e-03	4.8365767270e-02	-5.2059072683e-02
62                	3.2366640092e-02	-8.1620281299e-02	1.1398692139e-01	7.1129096184e-02	3.3695671108e-02	3.7433425077e-02	-1.8688769844e-03	-9.7803601345e-02	5.0211767083e-02	-3.6924900056e-03	4.8365522080e-02	-5.2058012086e-02
63                	3.2364548112e-02	-8.1027375606e-02	1.1339192372e-01	7.0714105687e-02	3.3444494227e-02	3.7269611460e-02	-1.9125586163e-03	-9.7209649663e-02	5.0206566703e-02	-3.6916738875e-03	4.8360729760e-02	-5.2052403647e-02
64                	3.2365833597e-02	-8.0434004104e-02	1.1279983770e-01	7.0299024836e-02	3.3197968393e-02	3.7101056444e-02	-1.9515440254e-03	-9.6616920902e-02	5.0206586164e-02	-3.6910449337e-03	4.8361063697e-02	-5.2052108631e-02
65                	3.2363892847e-02	-7.9824322126e-02	1.1218821497e-01	6.9870183388e-02	3.2942762356e-02	3.6927421032e-02	-1.9923293384e-03	-9.6006268549e-02	5.0201500263e-02	-3.6906123225e-03	4.8356194102e-02	-5.2046806424e-02
66                	3.2364822378e-02	-7.9215279187e-02	1.1158010157e-01	6.9440971853e-02	3.2692265592e-02	3.6748706261e-02	-2.0282203345e-03	-9.5397690376e-02	5.0200868130e-02	-3.6902504419e-03	4.8355742909e-02	-5.2045993351e-02
67                	3.2362784235e-02	-7.8583123700e-02	1.1094590794e-01	6.8991819061e-02	3.2430074483e-02	3.6561744578e-02	-2.0658350476e-03	-9.4764515818e-02	5.0195623687e-02	-3.6898309071e-03	4.8350708234e-02	-5.2040539141e-02
68                	3.2363738923e-02	-7.7946828388e-02	1.1031056731e-01	6.8537465484e-02	3.2170514188e-02	3.6366951296e-02	-2.0982185538e-03	-9.4128697850e-02	5.0195221098e-02	-3.6893087240e-03	4.8350566736e-02	-5.2039875460e-02
69                	3.2361244244e-02	-7.7291590717e-02	1.0965283496e-01	6.8064435748e-02	3.1901047633e-02	3.6163388116e-02	-2.1311702415e-03	-9.3472212839e-02	5.0189702686e-02	-3.6887466162e-03	4.8345329378e-02	-5.2034075994e-02
70                	3.2361665192e-02	-7.6624943965e-02	1.0898660916e-01	6.7579946574e-02	3.1632074519e-02	3.5947872054e-02	-2.1578987676e-03	-9.2805776561e-02	5.0188905184e-02	-3.6882661722e-03	4.8344772098e-02	-5.2033038271e-02
71                	3.2358578284e-02	-7.5931514160e-02	1.0829009244e-01	6.7070822069e-02	3.1350725059e-02	3.5720097010e-02	-2.1846859753e-03	-9.2110803302e-02	5.0182892274e-02	-3.6878779070e-03	4.8338953320e-02	-5.2026831227e-02
72                	3.2358110202e-02	-7.5223922115e-02	1.0758203232e-01	6.6548354442e-02	3.1068959680e-02	3.5479394761e-02	-2.2052175406e-03	-9.1402977216e-02	5.0181205405e-02	-3.6875482104e-03	4.8337431300e-02	-5.2024979510e-02
73                	3.2353830923e-02	-7.4489287466e-02	1.0684311839e-01	6.6001537806e-02	3.0774477363e-02	3.5227060443e-02	-2.2262915397e-03	-9.0666202927e-02	5.0173743299e-02	-3.6872076147e-03	4.8330139492e-02	-5.2017347106e-02
74                	3.2351996304e-02	-7.3742133972e-02	1.0609413028e-01	6.5443095126e-02	3.0479284111e-02	3.4963811014e-02	-2.2422634516e-03	-8.9918132124e-02	5.0170356838e-02	-3.6868508780e-03	4.8326931399e-02	-5.2013782277e-02
75                	3.2346359895e-02	-7.2973354600e-02	1.0531971450e-01	6.4865272402e-02	3.0172105810e-02	3.4693166592e-02	-2.2605303910e-03	-8.9146534548e-02	5.0161306268e-02	-3.6864874630e-03	4.8318062537e-02	-5.2004550000e-02
76                	3.2343308808e-02	-7.2201386682e-02	1.0454469549e-01	6.4284243073e-02	2.9866138600e-02	3.4418104473e-02	-2.2759829368e-03	-8.8373041086e-02	5.0156523473e-02	-3.6861674641e-03	4.8313439741e-02	-5.1999607205e-02
77                	3.2336569249e-02	-7.1421298259e-02	1.0375786751e-01	6.3694967657e-02	2.9551235099e-02	3.4143732558e-02	-2.2962487298e-03	-8.7589582883e-02	5.0146048979e-02	-3.6858776103e-03	4.8303110174e-02	-5.1988987784e-02
78                	3.2332492726e-02	-7.0653298979e-02	1.0298579171e-01	6.3114631395e-02	2.9241208651e-02	3.3873422745e-02	-2.3161070468e-03	-8.6819545343e-02	5.0139878206e-02	-3.6856122358e-03	4.8297072088e-02	-5.1982684324e-02
79                	3.2325092150e-02	-6.9894059796e-02	1.0221915195e-01	6.2539351188e-02	2.8926797304e-02	3.3612553883e-02	-2.3428782895e-03	-8.6056605871e-02	5.0128477958e-02	-3.6853439665e-03	4.8285805974e-02	-5.1971149941e-02
80                	3.2320780332e-02	-6.9165013362e-02	1.0148579369e-01	6.1986712266e-02	2.8622266071e-02	3.3364446195e-02	-2.3710900619e-03	-8.5325403528e-02	5.0121976946e-02	-3.6850670358e-03	4.8279443428e-02	-5.1964510464e-02
81                	3.2313468862e-02	-6.8462455886e-02	1.0077592475e-01	6.1452004302e-02	2.8318696980e-02	3.3133307321e-02	-2.4073051706e-03	-8.4619190317e-02	5.0110859784e-02	-3.6847658130e-03	4.8268476878e-02	-5.1953242691e-02
82                	3.2309358837e-02	-6.7804526641e-02	1.0011388548e-01	6.0950768991e-02	2.8030051934e-02	3.2920717057e-02	-2.4453325611e-03	-8.3959206059e-02	5.0104843622e-02	-3.6844808140e-03	4.8262603215e-02	-5.1947084029e-02
83                	3.2302462986e-02	-6.7183536748e-02	9.9485999735e-02	6.0475617313e-02	2.7746956561e-02	3.2728660752e-02	-2.4908520958e-03	-8.3334768241e-02	5.0094318261e-02	-3.6842105901e-03	4.8252212966e-02	-5.1936423556e-02
84                	3.2299095085e-02	-6.6613213671e-02	9.8912308757e-02	6.0038770597e-02	2.7482500465e-02	3.2556270132e-02	-2.5368848334e-03	-8.2762761214e-02	5.0089221753e-02	-3.6839718236e-03	4.8247235841e-02	-5.1931207665e-02
85                	3.2293206481e-02	-6.6081159021e-02	9.8374365502e-02	5.9629279103e-02	2.7226425114e-02	3.2402853989e-02	-2.5882144376e-03	-8.2227762261e-02	5.0079999119e-02	-3.6837233561e-03	4.8238137441e-02	-5.1921860797e-02
86                	3.2290885672e-02	-6.5595729755e-02	9.7886615427e-02	5.9255556265e-02	2.6990465619e-02	3.2265090646e-02	-2.6373125137e-03	-8.1741172591e-02	5.0076315040e-02	-3.6834727918e-03	4.8234578645e-02	-5.1918051436e-02
87                	3.2286039595e-02	-6.5140403018e-02	9.7426442613e-02	5.8903419014e-02	2.6763100172e-02	3.2140318842e-02	-2.6886093348e-03	-8.1283422815e-02	5.0068591269e-02	-3.6831987133e-03	4.8226991912e-02	-5.1910190626e-02
88                	3.2284618394e-02	-6.4720518942e-02	9.7005137335e-02	5.8579175908e-02	2.6554816833e-02	3.2024359076e-02	-2.7347711215e-03	-8.0862828139e-02	5.0066217450e-02	-3.6829317276e-03	4.8224751586e-02	-5.1907683314e-02
89                	3.2280473310e-02	-6.4317291221e-02	9.6597764531e-02	5.8266971610e-02	2.6352761823e-02	3.1914209788e-02	-2.7807239824e-03	-8.0457527876e-02	5.0059411370e-02	-3.6826455600e-03	4.8218088590e-02	-5.1900734150e-02
90                	3.2279485304e-02	-6.3935749766e-02	9.6215235069e-02	5.7972790917e-02	2.6166409250e-02	3.1806381667e-02	-2.8199862083e-03	-8.0075492418e-02	5.0057546103e-02	-3.6823627416e-03	4.8216364732e-02	-5.1898727473e-02
91                	3.2275576754e-02	-6.3559366017e-02	9.5834942771e-02	5.7682520037e-02	2.5983162258e-02	3.1699357779e-02	-2.8580977604e-03	-7.9697154394e-02	5.0050997564e-02	-3.6820633212e-03	4.8209965903e-02	-5.1892029224e-02
92                	3.2274611525e-02	-6.3194662512e-02	9.5469274037e-02	5.7403324532e-02	2.5812477029e-02	3.1590847504e-02	-2.8891852374e-03	-7.9331968274e-02	5.0049123901e-02	-3.6817627418e-03	4.8208242530e-02	-5.1890005272e-02
93                	3.2270621444e-02	-6.2827183908e-02	9.5097805352e-02	5.7122390493e-02	2.5641892452e-02	3.1480498041e-02	-2.9193027949e-03	-7.8962494630e-02	5.0042421477e-02	-3.6814362444e-03	4.8201703355e-02	-5.1883139599e-02
94                	3.2269477065e-02	-6.2466188865e-02	9.4735665930e-02	5.6848672508e-02	2.5481185153e-02	3.1367487356e-02	-2.9431511014e-03	-7.8600927397e-02	5.0040274948e-02	-3.6811055602e-03	4.8199722168e-02	-5.1880827728e-02
95                	3.2265222371e-02	-6.2099453663e-02	9.4364676034e-02	5.6570746469e-02	2.5318322791e-02	3.1252423678e-02	-2.9670504434e-03	-7.8232064848e-02	5.0033189592e-02	-3.6807541902e-03	4.8192812497e-02	-5.1873566687e-02
96                	3.2263760554e-02	-6.1738189700e-02	9.4001950254e-02	5.6298995625e-02	2.5163374739e-02	3.1135620886e-02	-2.9861230734e-03	-7.7870069977e-02	5.0030572219e-02	-3.6804125009e-03	4.8190365969e-02	-5.1870778470e-02
97                	3.2259225452e-02	-6.1373483942e-02	9.3632709394e-02	5.6024681081e-02	2.5005556953e-02	3.1019124127e-02	-3.0067835870e-03	-7.7503096668e-02	5.0023063503e-02	-3.6800680883e-03	4.8183029459e-02	-5.1863097547e-02
98                	3.2257545283e-02	-6.1016257182e-02	9.3273802465e-02	5.5758025483e-02	2.4855202706e-02	3.0902822777e-02	-3.0238100358e-03	-7.7145029824e-02	5.0020097542e-02	-3.6797314176e-03	4.8180231833e-02	-5.1859963251e-02
99                	3.2252886217e-02	-6.0657996287e-02	9.2910882504e-02	5.5490438069e-02	2.4701846523e-02	3.0788591547e-02	-3.0433725120e-03	-7.6784439396e-02	5.0012362895e-02	-3.6793749159e-03	4.8172675437e-02	-5.1852050353e-02
100               	3.2251216604e-02	-6.0310518416e-02	9.2561735020e-02	5.5232715657e-02	2.4556114188e-02	3.0676601468e-02	-3.0602436400e-03	-7.6436126718e-02	5.0009375063e-02	-3.6790204917e-03	4.8169864817e-02	-5.1848885309e-02
101               	3.2246700282e-02	-5.9965840764e-02	9.2212541046e-02	5.4976535205e-02	2.4407918994e-02	3.0568616211e-02	-3.0803486085e-03	-7.6089190905e-02	5.0001826852e-02	-3.6786678066e-03	4.8162492949e-02	-5.1841160755e-02
102               	3.2245270347e-02	-5.9634812753e-02	9.1880083101e-02	5.4732107406e-02	2.4267979777e-02	3.0464127628e-02	-3.0980739253e-03	-7.5757447927e-02	4.9999171540e-02	-3.6783275701e-03	4.8160007755e-02	-5.1838335325e-02
103               	3.2241024881e-02	-5.9308961452e-02	9.1549986333e-02	5.4490843774e-02	2.4126412891e-02	3.0364430883e-02	-3.1190089964e-03	-7.5429473893e-02	4.9991984208e-02	-3.6779740937e-03	4.8152997162e-02	-5.1830971255e-02
104               	3.2239873071e-02	-5.8996883060e-02	9.1236756131e-02	5.4261436101e-02	2.3993389281e-02	3.0268046820e-02	-3.1373287698e-03	-7.5116819596e-02	4.9989688986e-02	-3.6776356016e-03	4.8150871185e-02	-5.1828506787e-02
105               	3.2235907777e-02	-5.8690136784e-02	9.0926044561e-02	5.4035191068e-02	2.3859034783e-02	3.0176156285e-02	-3.1585607514e-03	-7.4808090673e-02	4.9982867425e-02	-3.6772960560e-03	4.8144219397e-02	-5.1821515453e-02
106               	3.2235068678e-02	-5.8397925408e-02	9.0632994086e-02	5.3821189033e-02	2.3733734302e-02	3.0087454731e-02	-3.1768602141e-03	-7.4515459747e-02	4.9980993578e-02	-3.6769772784e-03	4.8142504939e-02	-5.1819482217e-02
107               	3.2231371266e-02	-5.8110186155e-02	9.0341557421e-02	5.3609538962e-02	2.3607216124e-02	3.0002322838e-02	-3.1975533569e-03	-7.4225871788e-02	4.9974559585e-02	-3.6766452430e-03	4.8136236964e-02	-5.1812882207e-02
108               	3.2230769941e-02	-5.7835295836e-02	9.0066065778e-02	5.3408871886e-02	2.3489524072e-02	2.9919347814e-02	-3.2149118712e-03	-7.3950680807e-02	4.9973043308e-02	-3.6763230305e-03	4.8134881793e-02	-5.1811204823e-02
109               	3.2227277649e-02	-5.7563837615e-02	8.9791115264e-02	5.3209653020e-02	2.3370387977e-02	2.9839265044e-02	-3.2344385335e-03	-7.3677476440e-02	4.9966930911e-02	-3.6760036297e-03	4.8128929096e-02	-5.1804932726e-02
110               	3.2226857031e-02	-5.7304059277e-02	8.9530916308e-02	5.3020475078e-02	2.3259743834e-02	2.9760731243e-02	-3.2504937046e-03	-7.3417487792e-02	4.9965711177e-02	-3.6757185881e-03	4.8127851883e-02	-5.1803570471e-02
111               	3.2223468937e-02	-5.7046534026e-02	8.9270002963e-02	5.2831824692e-02	2.3147338890e-02	2.9684485801e-02	-3.2685734556e-03	-7.3158268495e-02	4.9959780241e-02	-3.6754374926e-03	4.8122061495e-02	-5.1797498987e-02
112               	3.2223128124e-02	-5.6799351781e-02	8.9022479904e-02	5.2652319735e-02	2.3042994918e-02	2.9609324817e-02	-3.2831649498e-03	-7.2910915842e-02	4.9958709719e-02	-3.6751727600e-03	4.8121123339e-02	-5.1796296099e-02
113               	3.2219803485e-02	-5.6553644540e-02	8.8773448025e-02	5.2472776784e-02	2.2936519551e-02	2.9536257233e-02	-3.2998688412e-03	-7.2663546283e-02	4.9952891632e-02	-3.6749035536e-03	4.8115439855e-02	-5.1790343408e-02
114               	3.2219536091e-02	-5.6317788692e-02	8.8537324784e-02	5.2302015381e-02	2.2837748886e-02	2.9464266495e-02	-3.3132588043e-03	-7.2427556738e-02	4.9951947501e-02	-3.6746548558e-03	4.8114620073e-02	-5.1789274929e-02
115               	3.2216277211e-02	-5.6083316105e-02	8.8299593315e-02	5.2131013656e-02	2.2736579552e-02	2.9394434103e-02	-3.3289272753e-03	-7.2191454710e-02	4.9946252280e-02	-3.6744045193e-03	4.8109050020e-02	-5.1783454540e-02
116               	3.2216055627e-02	-5.5862095912e-02	8.8078151539e-02	5.1971243719e-02	2.2644301129e-02	2.9326942590e-02	-3.3413207306e-03	-7.1970123726e-02	4.9945400523e-02	-3.6741754719e-03	4.8108312787e-02	-5.1782488259e-02
117               	3.2212886236e-02	-5.5631395918e-02	8.7844282154e-02	5.1802997977e-02	2.2544786746e-02	2.9258211231e-02	-3.3567122428e-03	-7.1737839036e-02	4.9939839130e-02	-3.6739377158e-03	4.8102870272e-02	-5.1776807988e-02
118               	3.2212798811e-02	-5.5423291922e-02	8.7636090733e-02	5.1653226532e-02	2.2458378958e-02	2.9194847574e-02	-3.3682343082e-03	-7.1529691327e-02	4.9939214034e-02	-3.6737225188e-03	4.8102352775e-02	-5.1776075294e-02
119               	3.2209816149e-02	-5.5209978558e-02	8.7419794708e-02	5.1497989968e-02	2.2366452470e-02	2.9131537498e-02	-3.3825425142e-03	-7.1314886633e-02	4.9933969307e-02	-3.6734992305e-03	4.8097219691e-02	-5.1770718922e-02
120               	3.2209703195e-02	-5.5003343959e-02	8.7213047154e-02	5.1348963584e-02	2.2280326915e-02	2.9068636669e-02	-3.3941548770e-03	-7.1108195557e-02	4.9933301110e-02	-3.6732884840e-03	4.8096656868e-02	-5.1769945352e-02
121               	3.2206839464e-02	-5.4800996111e-02	8.7007835574e-02	5.1201734568e-02	2.2193185304e-02	2.9008549264e-02	-3.4076819800e-03	-7.0904415842e-02	4.9928264663e-02	-3.6730708147e-03	4.8091729256e-02	-5.1764800071e-02
122               	3.2206908750e-02	-5.4607295572e-02	8.6814204322e-02	5.1062211514e-02	2.2112851209e-02	2.8949360305e-02	-3.4182545481e-03	-7.0710749947e-02	4.9927922210e-02	-3.6728704902e-03	4.8091486965e-02	-5.1764357455e-02
123               	3.2204149328e-02	-5.4412553354e-02	8.6616702682e-02	5.0920296952e-02	2.2029105942e-02	2.8891191010e-02	-3.4310425338e-03	-7.0514628018e-02	4.9923081601e-02	-3.6726701356e-03	4.8086746533e-02	-5.1759416669e-02
124               	3.2204267450e-02	-5.4224749864e-02	8.6429017314e-02	5.0784743681e-02	2.1951378354e-02	2.8833365326e-02	-3.4409934862e-03	-7.0326883589e-02	4.9922847868e-02	-3.6724895052e-03	4.8086603115e-02	-5.1759092620e-02
125               	3.2201556743e-02	-5.4037563206e-02	8.6239119949e-02	5.0648095497e-02	2.1871073687e-02	2.8777021811e-02	-3.4529740619e-03	-7.0138341577e-02	4.9918121337e-02	-3.6723026395e-03	4.8081970017e-02	-5.1754272657e-02
126               	3.2201730672e-02	-5.3857008656e-02	8.6058739328e-02	5.0517655715e-02	2.1796821770e-02	2.8720833945e-02	-3.4620060876e-03	-6.9957873992e-02	4.9918012307e-02	-3.6721313930e-03	4.8081946611e-02	-5.1754078004e-02
127               	3.2199047441e-02	-5.3675631213e-02	8.5874678654e-02	5.0385028383e-02	2.1719408227e-02	2.8665620156e-02	-3.4731059649e-03	-6.9775154934e-02	4.9913370345e-02	-3.6719585841e-03	4.8077391053e-02	-5.1749349637e-02