/*--------------------------------*- C++ -*----------------------------------*\
| =========                 |                                                 |
| \\      /  F ield         | OpenFOAM: The Open Source CFD Toolbox           |
|  \\    /   O peration     | Version:  2406                                  |
|   \\  /    A nd           | Website:  www.openfoam.com                      |
|    \\/     M anipulation  |                                                 |
\*---------------------------------------------------------------------------*/
FoamFile
{
    version     2.0;
    format      ascii;
    arch        "LSB;label=32;scalar=64";
    class       volScalarField;
    location    "250";
    object      p;
}
// * * * * * * * * * * * * * * * * * * * * * * * * * * * * * * * * * * * * * //

dimensions      [0 2 -2 0 0 0 0];

internalField   nonuniform List<scalar> 
124023
(
0.05450506392
-0.7332359578
0.03568646157
-0.1368672068
-0.3331680798
-0.2717417933
0.2449567673
0.5784706975
0.1462836772
0.6024610494
0.5782154776
0.2404920898
0.3359524405
0.358458816
-0.1336488151
-0.4921747504
-1.162754857
-1.202795604
-1.112215719
-1.085178673
-0.5248396636
-0.6336379671
-0.6587547901
-6.433049756
-6.883897506
-4.284241978
3.34016537
-10.39299935
-10.47077702
-9.471259332
-6.927848045
-9.455662006
3.659082269
-3.720606005
1.431798436
0.1638490896
-9.397173349
-9.489369348
5.149949592
5.11350067
-7.489207811
-4.319472121
-7.426926482
3.556934672
0.1939670387
3.558159924
0.1800418408
7.569376059
7.26044818
7.257779552
7.573719208
-10.29526789
-10.3052738
-9.988200096
-8.441477998
-9.607708514
-11.44435936
-8.452421146
-10.01575449
-11.43701261
-10.01026363
-11.45068741
-9.6084671
-8.470513518
-8.473233854
-11.45862689
-10.06728615
-9.433679498
-7.705075132
-7.769585362
-9.381065067
-7.942166526
-7.791474756
-2.116104375
-2.639299678
7.11250965
5.200106149
-2.261786413
-2.535846031
7.190108335
-2.066719332
-2.419462146
5.254432749
7.187211189
-2.058685583
-2.45923518
7.200984632
-6.465626615
-8.971369159
-7.67056682
-8.043984326
-6.904591786
-7.671263291
-8.067313927
-8.965385655
4.987216799
2.665677804
5.086266847
3.338282582
5.082871335
4.976382656
2.686001157
-8.989805119
-6.923135929
-7.716890607
-8.086502546
-7.693284641
-8.079959674
-9.016595886
-6.50761903
-7.548347831
-6.538529485
-4.434621495
-5.283167683
-4.408041352
-5.336689856
-7.497806696
-6.49950837
-6.540910382
-4.445583824
-5.296785373
-5.314530727
-4.419799407
-1.018645457
-1.240459818
3.572830706
1.960563818
-1.247754495
-1.011598054
1.965587451
-1.011635132
-1.194556461
3.599968105
1.961511164
-0.9943004114
-1.237741618
1.973942728
9.874065038
10.63292281
7.622239782
7.590290318
10.64600968
7.623277444
9.876688389
9.873433837
7.596957154
10.64763672
7.619019673
9.887307235
10.65990117
7.622000558
2.075556261
1.038053505
-3.774505756
-0.489749365
-0.5517782332
-6.853614373
-4.258213943
-10.46257269
-9.401632509
-9.438476683
-7.403345357
-10.24206425
-9.958577767
-8.401842804
-9.528820473
-11.42402079
-8.424670635
-11.41207963
-9.986126521
-9.296869887
-7.821949452
-7.681713001
-8.924866543
-7.662068387
-8.025438766
-6.816662138
-7.622830951
-8.951522013
-7.991892749
-6.365917156
-6.457280856
-7.447467996
-6.496733895
-4.393416164
-5.253998455
-5.263455988
-4.373159397
3.348080331
8.818434745
1.964301612
1.230994651
1.240747369
0.9475413647
3.352884383
5.272600465
2.772511744
18.01033972
0.6784627477
14.96636884
14.52194083
12.12038377
13.4017656
18.07081018
14.60706952
13.42128712
12.13917131
14.56501373
1.186200102
1.286218516
0.9522677036
2.764440816
0.1437366352
1.927801869
1.022340066
1.198018997
1.938129149
2.059533877
-3.401235235
-5.122474682
-8.351366724
-6.046513088
-7.724422772
-5.13615116
-8.747409992
-9.797063015
-8.236150901
-8.022010141
-6.534410668
-7.075404556
-7.16779317
-8.366486928
-7.546465842
-7.483568062
-9.423832799
-8.374675002
-9.456187151
-7.420154672
-9.798645497
-10.20146156
-9.782562172
-9.420370402
-10.18656439
-9.805847009
-9.412770865
-8.221534408
-7.588413985
-8.007019147
-7.884884232
-7.686695866
-7.602640882
-7.872598006
-7.678140823
-8.354463599
-7.995939961
-7.98586228
-7.53395022
-7.689314945
-7.683774628
-8.13871523
-7.478967648
-8.806294222
-7.573522332
-8.791453986
-7.573174668
-8.143996094
-8.619716118
-9.022004248
-9.132077485
-9.432204911
-9.029822604
-9.138752236
-8.612232001
-8.625840349
-9.163789124
-9.441904352
-9.043682212
-9.035680046
-9.147912297
-8.633046862
-8.322119378
-7.649366112
-8.706050164
-8.053339635
-8.350241796
-8.352112052
-8.357352642
-8.058793724
-8.708418576
-5.55949839
-6.060081789
-6.002603753
-5.573759166
-6.575035606
-6.074383655
-7.093554354
-6.644931874
-7.739386461
-7.108306569
-7.167442375
-6.659439665
-9.420641753
-8.740157634
-9.028897756
-9.081867624
-9.424028855
-9.02261839
-9.07717739
-6.81199599
-7.06754649
-6.803568702
-7.155262996
-7.45156731
-7.166729471
-7.442119307
-8.36195284
-8.367267247
-8.723998614
-8.075661623
-8.068304727
-8.718430236
-8.367235159
-8.006596973
-7.606016351
-7.414176347
-7.716113759
-7.70853327
-7.603314862
-8.016602836
-3.566621139
-2.651455317
-4.022875543
-1.119053916
-2.364146575
-1.124626999
-0.001632439206
-1.231790365
-4.43967739
-4.426787315
-4.401166679
-3.906363332
-3.928046772
-5.149273674
-4.462525619
-3.171030568
-2.455696448
-3.18672036
-3.582788946
-2.562736468
-2.560388229
-2.457560342
-4.894912982
-4.242583175
-5.331708125
-4.90865087
-4.573163809
-4.252528239
-3.362366886
-2.512970109
-3.63920648
-3.374434492
-2.480721366
-2.489724375
-3.715432505
-4.266963633
-5.640431724
-2.774433629
-8.436288553
-6.72835986
-10.66215265
-8.723269543
-10.84159018
-8.453824715
-6.788379608
-7.18006236
-8.306423127
-11.60939075
-13.11916276
-10.02015925
-11.56564516
-10.03248655
-11.10984949
-9.764148305
-9.640624778
-11.07082255
-9.656148517
-13.48938286
-10.10401101
-13.29980578
-11.51586065
-11.59030183
-12.12828838
-11.07847482
-12.10732042
-11.52474142
-11.07107148
-11.95206835
-12.32654744
-12.60836073
-13.12159559
-11.93808909
-12.61436123
-12.341958
-11.50844022
-11.57359343
-12.07842056
-11.05594812
-11.49619601
-12.08597763
-11.06670574
-10.20447219
-11.09263795
-10.63546465
-10.63939063
-10.62351073
-10.6287122
-10.21129599
-9.794493356
-9.398179348
-10.16759514
-9.772365967
-9.784606522
-10.17598408
-9.407606578
-10.20087564
-11.07899583
-10.60358627
-10.61506266
-10.1907912
-10.61180626
-10.6253203
-12.6962516
-12.59401054
-13.48662207
-13.64224698
-12.61312782
-12.67306105
-13.63121002
-12.60558789
-13.27897219
-13.57290343
-12.27578945
-12.57817057
-13.55652506
-12.30609647
-9.670910144
-7.788240668
-9.135163263
-8.449756668
-7.776276127
-11.19766394
-11.4453671
-10.67097559
-10.56107891
-11.19397956
-11.4522271
-10.56680282
-9.063908285
-9.006337555
-9.408418985
-9.412312416
-8.729982889
-9.013245574
-9.067740501
-11.62884975
-11.63576374
-10.85409366
-10.68827744
-10.70502227
-11.6475607
-11.61273658
-9.333618101
-8.395190236
-9.626612037
-8.409869815
-8.467894514
-9.347379674
-7.634058802
-8.825676222
-7.975039123
-7.990201708
-8.840597986
-10.50775041
-10.84798451
-10.2442986
-10.02492971
-10.84599239
-10.50938647
-10.24898618
-10.8530874
-10.51170753
-10.25519795
-10.03016293
-10.85033224
-10.51366207
-10.25362282
-9.374629183
-10.12842396
-9.7744633
-9.777860201
-9.64618168
-10.13082011
-9.381169276
-9.784720429
-10.13565941
-9.652669553
-9.394655631
-10.13600033
-9.786354693
-9.389450845
-11.51780509
-10.57038674
-10.12492606
-11.1517265
-10.59017172
-11.49641325
-11.17648628
-5.334884418
-4.29845422
-3.166311801
-3.925948663
-5.370777688
-3.893350697
-3.188761181
-4.703646904
-4.817473622
-4.789524406
-5.776322145
-5.669873318
-4.733841578
-5.808931035
-1.324492435
-4.826774257
-9.695187658
-12.91930258
-1.967252167
-11.08440938
-12.89460063
-12.43107566
-11.80059839
-11.08260546
-12.40099763
-11.82628192
-6.907539822
-8.165851715
-5.378007468
-5.382781355
-6.898438715
-9.913341097
-8.850209281
-9.716032574
-10.68501142
-8.870856911
-9.894115953
-10.71050508
-3.357335274
-3.380927492
-1.187377709
-1.134782601
-1.929115081
-1.968649877
-0.4650736473
-0.8370884743
-1.47447057
-6.321353145
-4.856224031
-6.291059806
-4.864125981
-0.7734853726
-2.139248034
-3.954402328
-2.493255711
-2.419743712
-4.003552087
-0.7467436432
3.382720477
2.64522973
-3.775298601
-2.387756458
-2.126752344
-3.283615122
-2.336580168
-3.826640773
-3.281190916
-0.06375748367
-0.06426198823
0.7749237734
0.8220253797
1.629425785
1.345020085
3.29637084
3.689703345
1.330983416
3.717872148
1.813740267
-0.8700479021
-0.5983351273
0.5213409258
1.22249803
-0.5221048775
-0.739058979
-0.5125009583
0.7974317467
0.4011699453
0.4002465562
0.812698153
1.71781492
1.339957236
2.634304259
2.991916139
1.334578219
3.012644749
1.732436557
-1.204723402
-0.7569741639
-2.122089674
-3.89465418
-2.396410705
-2.398998489
-3.930100834
-0.7440851553
3.37060876
2.647239219
-3.720609412
-2.315034068
-2.105063263
-3.276816985
-2.311455743
-3.245640666
-3.773831675
-6.307462015
-4.868751036
-4.851808608
-6.347996392
-0.06197011775
-0.09710481548
0.768986665
0.807368255
1.732034381
1.333169378
3.346272944
3.654112608
1.324891506
3.722735523
1.811229191
-1.094663098
-0.8356261543
-0.5889732437
0.5303329128
1.228079626
-0.5195061343
-0.7385957916
-0.527106693
0.7951058239
0.40110207
0.4046176691
0.800956512
1.738284444
1.34229176
2.650479905
2.979929465
1.345422144
3.016205572
1.724755927
-3.349622681
-6.507094238
-5.790020446
-1.967931093
-2.326112165
-5.969017047
-5.10299042
-5.298173743
-3.994259999
-8.194845997
-7.040894699
-7.146655366
-6.492829828
-7.98172121
-7.008673689
-7.517568602
-8.323430239
-7.473911428
-7.395554297
-7.440946814
-5.666121439
-6.677113786
-4.968386495
-5.773727807
-6.642265703
-5.67416003
-4.953636801
-6.072319037
-7.595114581
-7.541623841
-6.037130381
-8.173310806
-7.545119318
-8.016821133
-7.846516979
-7.659659485
-7.824070075
-7.652229579
-7.573736885
-7.661895183
-7.503092857
-7.643477213
-8.311506777
-7.954314174
-7.948581356
-7.60992719
-7.484756392
-7.61981797
-8.119229685
-7.488242339
-8.78138463
-7.54467259
-8.75901848
-7.557480203
-8.115341384
-6.633238507
-6.492601229
-6.162205217
-6.03569896
-6.475113108
-6.562987572
-6.158720084
-6.989297824
-7.588430762
-6.467902594
-6.57508285
-6.98626804
-6.977525313
-6.301086446
-7.571770495
-6.407348513
-6.952697503
-6.728216963
-5.997640344
-6.499590396
-6.18943723
-6.473798883
-6.18256337
-6.689804394
-6.687203725
-5.69182188
-5.612877086
-7.613277331
-6.062295446
-6.52079139
-5.988924452
-8.202810533
-7.050398398
-7.155153442
-7.992017493
-7.525574616
-8.330442694
-7.399701403
-7.448990666
-5.115010023
-5.607888416
-6.445384672
-6.47984924
-7.010312847
-7.607513057
-6.476351715
-7.007943017
-6.595854776
-6.760513486
-6.032437908
-6.52559181
-6.223383431
-6.741791184
-6.509931096
-6.212538897
-8.204050472
-7.570647842
-8.039430917
-7.856961824
-7.667145432
-7.848732314
-7.671205937
-7.581858434
-7.532128657
-7.662160214
-7.675471758
-8.340945937
-7.960411271
-7.977605865
-8.133747401
-7.509092707
-8.780328929
-7.55177831
-8.792354712
-7.569244704
-8.12269674
-6.54176255
-5.958455443
-6.530799739
-6.023423595
-5.541522399
-5.524791439
-6.04063768
-7.131853682
-6.622874946
-7.11231083
-6.778696704
-7.415776296
-7.023783366
-7.387152394
-6.765941142
-7.134007415
-7.109444891
-7.382682786
-7.017736065
-6.751628181
-7.389329859
-7.10715969
-6.756268272
-7.996550975
-7.690498885
-7.588235729
-7.396318469
-7.69150186
-7.592872167
-7.98623655
-5.724256089
-6.077833208
-5.661377592
-5.296684049
-6.065736823
-5.303976711
-5.707218442
-6.113069015
-6.435091076
-6.674162465
-6.159136318
-6.426026689
-6.161638336
-6.122252879
-6.09139306
-6.104748096
-6.656445747
-6.425964726
-6.423530036
-6.127704592
-6.069490258
-5.744434377
-5.657745859
-6.081114954
-5.326209414
-6.058509087
-5.317249942
-5.753465446
-6.441772435
-6.16965514
-6.128713534
-6.140992363
-6.695934082
-6.185525437
-6.455085133
-6.097955167
-5.33400749
-5.760684322
-5.774312439
-5.688433969
-6.089602342
-5.348509801
-6.561088019
-7.153448954
-6.784953061
-7.424964987
-7.141202851
-7.048727807
-6.793550984
-7.139134755
-7.413223461
-7.695160625
-7.592972638
-8.000536994
-7.993807634
-7.406329939
-7.700174138
-7.595007258
-4.733830924
-4.442524653
-4.119353794
-5.121491204
-4.748231844
-4.453721695
-4.131154979
-5.806938455
-2.524803902
-5.318367079
-3.627910009
-4.986963418
-3.942668395
-2.796011944
-4.54192975
-5.287034173
-4.530333509
-4.211111818
-4.878089737
-4.224146891
-4.861858699
-4.561534157
-2.505297121
-3.657847633
-8.345236363
-6.008788685
-7.70337447
-8.162111191
-7.954321913
-7.131321776
-8.297828909
-9.362660002
-8.291855492
-7.417294454
-9.415270557
-8.317125046
-9.378084539
-7.369828751
-8.715996082
-6.747370569
-7.138464096
-8.285319348
-10.99889044
-8.66773698
-9.699537481
-9.580930397
-11.01553556
-9.753344602
-9.630540034
-8.687042893
-9.715804704
-11.05638927
-9.59945232
-8.167082672
-7.544142927
-7.959109471
-7.815168132
-7.635093131
-7.820853487
-7.640088465
-7.543934611
-8.547009146
-9.073663772
-9.35091544
-8.964985006
-9.061918513
-8.559741833
-8.951389356
-8.298525033
-7.918950791
-7.928985471
-8.103601328
-8.736429957
-7.433087882
-7.522803841
-8.749542993
-7.538846752
-8.089423696
-8.600346793
-9.013136344
-9.398849715
-9.124265236
-9.110383889
-9.005607129
-8.605119005
-8.588549231
-9.08819485
-9.386563606
-8.981743814
-9.095691451
-8.575325691
-8.994238848
-10.11398884
-10.53358922
-10.5503652
-10.98536249
-10.52007454
-10.12725203
-10.53775904
-9.686569024
-9.338747426
-9.32489746
-9.708963375
-10.10004772
-10.08671087
-9.722699025
-10.15268852
-10.55020972
-11.0201049
-10.5637604
-10.55555355
-10.57425247
-10.14172295
-9.387476873
-9.735639749
-9.378743235
-9.761598293
-10.15557457
-10.13574918
-9.772310381
-9.722936552
-9.354821925
-9.367221125
-9.749653209
-10.11657449
-10.12292541
-9.738070382
-10.16534272
-11.03371159
-10.59031752
-10.60132427
-10.56881889
-10.58768425
-10.17768228
-2.720606833
-2.71970805
-10.64998096
-4.232637493
-10.82830513
-8.347889474
-4.797207514
-6.690013958
-11.50905045
-13.09601789
-10.00992764
-10.61446614
-11.54966388
-13.06069771
-9.977716567
-13.46371736
-10.088015
-10.7929719
-13.43297315
-13.27171624
-9.679356918
-12.89647578
-11.4526698
-11.51262277
-12.02101302
-11.00298194
-12.02373935
-11.01318761
-11.44208979
-11.90828138
-12.30809082
-12.58848328
-13.07250245
-12.56515815
-11.92295357
-12.2923956
-11.46756156
-11.52638731
-12.0607333
-11.0417599
-12.03753728
-11.02735048
-11.48196034
-11.89351786
-12.55024688
-13.06029395
-12.27163997
-12.55181404
-11.88328091
-12.27939501
-12.63527582
-12.57310683
-13.44185916
-13.61242985
-12.55792179
-13.58925833
-12.64856764
-12.62641573
-13.58507849
-13.42971077
-12.54048371
-12.5469989
-13.57908729
-12.61964135
-12.53851942
-13.24405194
-13.53996814
-12.24526723
-13.51543934
-12.23970398
-12.54884286
-11.03731691
-12.86189218
-12.41411437
-11.76944007
-12.36962982
-11.76576861
-11.05239519
-8.343584644
-8.697145432
-8.049225379
-8.342028749
-8.048111908
-8.695564742
-8.344431632
-7.657108941
-7.687948856
-7.069949302
-7.118252895
-7.050781254
-6.604658872
-8.286323124
-8.285986116
-8.648549386
-8.002512159
-7.991701422
-8.296885889
-8.636672035
-8.330413667
-8.329767272
-8.669918133
-8.022065071
-8.036134509
-8.317342636
-8.681778809
-7.972981751
-7.563645419
-7.385102206
-7.665422457
-7.679282455
-7.576712816
-7.970314004
-9.053358478
-8.711386884
-9.049993778
-9.390837836
-8.997725288
-9.395923511
-8.991619916
-8.235218934
-8.753372674
-8.268495089
-7.609450343
-7.589314528
-7.929265918
-8.804500792
-8.787060872
-7.949697259
-8.655320515
-9.003833566
-8.991657991
-9.33359101
-8.948967559
-9.346019069
-8.936516295
-9.698219625
-10.06303275
-9.316230592
-9.568919353
-9.71052554
-10.05102404
-9.30381147
-9.753964145
-9.365402355
-10.11351321
-9.621917591
-10.10520928
-9.760675079
-9.358241087
-8.698875785
-9.024997147
-9.036668857
-9.377277416
-8.968115402
-9.366804018
-8.978906979
-9.740038703
-10.08213209
-9.608618944
-9.335243881
-10.09068919
-9.730562231
-9.345260661
-11.16719401
-11.42781401
-10.5499845
-10.63765527
-11.1777914
-11.4163773
-10.53846432
-11.57772708
-11.61605988
-10.67358199
-10.81524288
-11.60349109
-11.59114806
-10.65928203
-8.425049091
-9.312104595
-9.584118339
-9.293966415
-8.368573874
-8.404326623
-9.603053584
-8.404873339
-9.624012412
-8.383713984
-9.643703443
-9.103425917
-7.740640984
-8.123117029
-5.316973148
-6.855202237
-10.49219719
-10.00027871
-10.4827019
-10.82000355
-10.23350722
-10.83016393
-10.22270772
-11.39177682
-10.51501201
-11.14160761
-11.15039448
-10.62300803
-11.40005961
-10.52368801
-10.45930843
-9.986443272
-10.1997574
-10.46741622
-10.79537935
-10.80379021
-10.20839795
-11.45807751
-10.55471917
-11.12648226
-10.07025501
-11.11372841
-11.47216432
-10.53890569
-11.5817567
-10.63905184
-11.55863606
-11.56464745
-10.80094126
-11.58877974
-10.64586236
-9.861233594
-8.835349807
-10.66059596
-9.659908217
-10.65055368
-9.873539028
-8.81150018
-5.085582765
-4.405020368
-4.368628744
-3.87580051
-5.602151092
-4.669887044
-4.755481173
-5.737506694
-5.296420538
-3.12903917
-3.862362534
-2.510674071
-3.535500551
-2.626007796
-2.487281767
-5.615385985
-3.924881663
-2.779597477
-5.106130805
-5.593437649
-6.504703774
-6.479190816
-5.100409174
-4.727456586
-4.44322879
-4.72025248
-4.440051341
-4.108127364
-4.112989016
-3.610643458
-2.478483701
-3.599081698
-3.332762257
-2.470601619
-3.348722842
-2.456269998
-2.003008562
-1.72782888
-1.69503244
-2.585052446
-2.630307235
-2.036244577
-2.075202809
-2.770454039
-2.062781881
-2.102536972
-2.078432105
-2.125998496
-1.64278725
-1.608806686
-3.143726871
-2.428398326
-2.531642299
-1.267069604
-1.99019053
0.3053973148
-0.484162067
-1.950999729
-0.8552605555
-11.25092753
-11.53598318
-12.05251978
-11.35088576
-11.59403224
-12.25234711
-10.29102303
-10.5803687
-11.47801265
-10.14733829
-10.25374024
-11.41670634
-11.19242938
-11.44647479
-12.05943074
-11.26643161
-11.56854418
-12.07002114
-10.42595645
-10.60540219
-11.68334863
-9.577758725
-10.47355692
-12.2344666
-10.48453656
-10.65331232
-11.4756614
-9.323694504
-10.18993143
-12.8376672
-5.165435731
-6.423883192
-8.56358161
-5.345263721
-7.073701752
-9.118168166
-11.27941654
-11.50803902
-12.09974409
-9.955504803
-10.07348013
-11.2446784
-11.17170967
-11.43274473
-12.00162166
-10.23995481
-10.36490837
-11.30389493
-9.114459161
-10.09131763
-13.11006353
13.85019659
12.9381262
11.23069282
-12.80963629
-13.03208955
-13.4689108
-12.97282979
-13.11347986
-13.62371599
-12.91185678
-13.07931574
-13.66927892
-12.95293431
-13.13951058
-13.58559499
-9.817622627
-10.6304204
-12.82117851
-5.333104979
-6.700974469
-8.177105945
-5.168601272
-6.276927881
-7.929453341
-9.694238053
-10.29955711
-12.06384085
-12.84534723
-13.04216786
-13.586987
-12.94349233
-13.0811868
-13.53713817
-9.624656411
-10.42674647
-12.38953314
24.59508115
26.440601
27.8409483
14.4138339
13.38925644
12.04239188
24.74264693
26.52621548
27.77812952
-8.369333166
-8.391909148
-8.393853198
-8.158808041
-8.134355891
-8.132740069
-7.460532137
-7.462930147
-7.465830856
-8.35632085
-8.379621328
-8.381714286
-8.148779666
-8.123817485
-8.121843972
-7.912074159
-7.915564114
-7.917916483
-7.447056359
-7.449613515
-7.451852569
-7.675176657
-7.68301566
-7.684810657
1.067497956
-4.294583711
-4.113964983
-4.335477438
-4.146585689
1.054398148
-8.324459811
-8.34593929
-8.347610418
-7.437836584
-7.438925938
-7.441028999
-8.11387123
-8.089625311
-8.088176189
-7.390226323
-7.392824053
-7.396139363
-7.572683219
-7.550889456
-7.541100535
-7.525353836
-7.505312525
-7.495449612
-8.310879763
-8.336086688
-8.337903181
-7.645246315
-7.652049136
-7.653450131
-7.417183279
-7.420591942
-7.423213399
-8.100520914
-8.076886085
-8.074750653
-7.870334966
-7.873488449
-7.875738572
-7.592154395
-7.599628988
-7.601922605
-7.398151455
-7.401839207
-7.405627464
-6.44449482
-6.434883034
-6.442476396
-6.119678993
-6.137486028
-6.155669108
-6.392723614
-6.387031267
-6.398458003
-6.10572138
-6.12106293
-6.13850041
-7.565590067
-7.54291035
-7.531627316
-7.100186418
-7.092201712
-7.086331722
-7.545356188
-7.525145234
-7.515962216
-7.589956486
-7.569389345
-7.559722246
-8.332426812
-8.354067736
-8.355934895
-7.447306475
-7.44984984
-7.453246449
-8.120337997
-8.09653965
-8.095352575
-7.119436041
-7.109980491
-7.105485993
-7.587784991
-7.564948352
-7.553413061
-8.342045118
-8.36742948
-8.369424949
-7.448611846
-7.451816031
-7.454362989
-7.642689327
-7.650220841
-7.652170734
-8.131367505
-8.108053057
-8.106130846
-7.875941686
-7.87962987
-7.882050004
-8.291133078
-8.312698573
-8.314589121
-8.081772553
-8.056915917
-8.055328031
-8.299717193
-8.322548345
-8.324587744
-8.089530978
-8.065091016
-8.063474896
-7.835500059
-7.83891853
-7.841255356
-9.877627328
-9.893642617
-9.894998255
-9.450949944
-9.459544548
-9.460302868
-9.489857052
-9.499598121
-9.500460669
-10.31541007
-10.33731554
-10.33918781
-9.866069093
-9.88295559
-9.884449921
-10.30377637
-10.3268332
-10.32890749
-8.872039642
-8.880092782
-8.877835154
-8.858862085
-8.867545658
-8.865381046
-9.079764998
-9.082068374
-9.083815933
-9.465574169
-9.475332051
-9.476095949
-9.09338375
-9.096591008
-9.09835162
-9.119518806
-9.122686532
-9.124379785
-9.478530865
-9.488868322
-9.489799146
-9.108015402
-9.111603369
-9.113288122
-7.901430859
-7.904923041
-7.907340288
-7.673282558
-7.681491443
-7.682819563
-11.29855392
-11.33732395
-11.3416275
-9.837520936
-9.852048358
-9.853202007
-11.2523285
-11.2890092
-11.29283517
-11.85049699
-11.90471719
-11.91131939
-13.6427744
-13.79729041
-13.81995931
-11.8011173
-11.85312278
-11.85927124
-14.13684208
-14.33715429
-14.37885611
-14.15161033
-14.40400684
-14.55917848
-11.28576728
-11.32667121
-11.33135445
-10.78719207
-10.81596424
-10.81876262
-10.7751257
-10.80548302
-10.80856629
-10.27387859
-10.29406003
-10.29562126
-9.852069729
-9.868174105
-9.869515755
-10.28931857
-10.3114796
-10.31336031
-11.2687604
-11.30897896
-11.31358707
-10.74356446
-10.77038827
-10.77277165
-10.7595527
-10.78898958
-10.79190444
-11.83665844
-11.89363685
-11.90072343
-12.43563281
-12.51370828
-12.52410433
-12.42088604
-12.50212774
-12.51312287
-13.0023975
-13.11217412
-13.12825328
-13.65397146
-13.8145747
-13.83926817
-13.01767561
-13.13442969
-13.15222216
-11.81767418
-11.8745862
-11.88181025
-12.38323147
-12.45910794
-12.4692034
-12.39953418
-12.48183507
-12.49328953
-14.13616913
-14.33857043
-14.38525262
-14.36347672
-14.59047268
-14.65836347
-14.34622358
-14.56849633
-14.64594627
-14.14043901
-14.37021215
-14.55773393
-14.36007203
-14.60520485
-14.70694856
-14.33569073
-14.56800729
-14.68908069
-13.86184239
-14.10694177
-14.33184144
-13.88956858
-14.1044199
-14.37341486
-13.51781656
-13.74492501
-14.04631084
-13.61715354
-13.80076793
-14.16288017
-6.537077914
-6.54727322
-6.539522662
-4.358800149
-4.166783533
-6.422940022
-6.433917352
-6.411007207
-2.141271724
-2.0657386
0.2054826847
0.1657860652
-2.042624773
-1.970919342
-4.394548052
-4.204476679
2.53168207
0.1828960322
0.1324055535
1.091349086
1.010518232
1.022581127
2.419615287
-2.033165374
-1.963288177
0.1708713112
0.117819142
-2.008469249
-1.934923711
2.522782399
-6.538424918
-6.55064161
-6.539003032
-6.547118488
-6.552566086
-6.541788924
0.1552611691
0.1062983445
1.068924684
0.9980382425
2.475760739
1.001108318
-7.100452286
-7.0908146
-7.086037347
-8.828205811
-8.833844283
-8.831254938
-8.817361835
-8.824586716
-8.821774482
-7.632644338
-7.640932274
-7.642346499
-7.859087019
-7.861426253
-7.863682733
-7.6017968
-7.609895393
-7.612074674
-7.104449716
-7.097595024
-7.093833379
-6.505459893
-6.486204658
-6.490651324
-6.136116548
-6.15097248
-6.166908209
-6.114023756
-6.126319786
-6.138137736
-6.502876312
-6.489909767
-6.496454711
-7.075890528
-7.069117904
-7.063430661
-7.1233248
-7.117240102
-7.11277933
-6.481464558
-6.477458923
-6.488591332
-6.532380424
-6.532257857
-6.540155177
-6.542322086
-6.52196565
-6.526106411
-6.173547373
-6.187355756
-6.200704966
-6.563459754
-6.549424763
-6.551140648
-6.14439524
-6.157827635
-6.171153506
-8.835487199
-8.842221976
-8.839974496
-8.849799774
-8.857021696
-8.854421664
-7.66479256
-7.673031287
-7.674404063
-7.889657434
-7.892230207
-7.894544257
-9.394531315
-9.403929994
-9.404596997
-9.441009576
-9.449298975
-9.449787387
-9.404888026
-9.413143337
-9.413781508
-11.18486653
-11.22390005
-11.22816683
-9.777638456
-9.793336516
-9.79455033
-11.19581119
-11.23191359
-11.23542996
-9.826335753
-9.840723897
-9.841661552
-9.788726415
-9.802999897
-9.804030957
-11.23926294
-11.27595403
-11.27959132
-9.026435198
-9.029154966
-9.030752041
-9.382229864
-9.392025698
-9.392689239
-9.014701084
-9.017878488
-9.01943726
-8.792408645
-8.799032295
-8.796711228
-8.80286299
-8.809744671
-8.807239109
-9.429647331
-9.439248208
-9.439842879
-9.069697678
-9.071804764
-9.073409918
-9.060410325
-9.063014317
-9.064463203
-9.036768382
-9.038669759
-9.04026396
-9.416393596
-9.425526224
-9.426140043
-9.047516491
-9.050103969
-9.051612733
-7.843630101
-7.847397356
-7.849822698
-10.67835338
-10.70697978
-10.70966113
-11.17263294
-11.21313605
-11.21787969
-10.66595894
-10.69558215
-10.6985508
-9.765083582
-9.781362846
-9.782645288
-10.21121599
-10.23284065
-10.23456874
-10.1986745
-10.22102291
-10.22290476
-10.68931237
-10.71579102
-10.71796291
-11.20781622
-11.24772802
-11.25227279
-10.70119498
-10.73032314
-10.7331632
-9.814020643
-9.830243117
-9.831490089
-10.26210487
-10.2821843
-10.2835003
-10.24863019
-10.27123635
-10.27316845
-9.800066762
-9.815722445
-9.816931645
-10.22222824
-10.2421501
-10.24356075
-10.23399841
-10.25579793
-10.25758616
-11.22387002
-11.26538608
-11.27035895
-10.73102083
-10.75776136
-10.75991337
-10.71660947
-10.74684015
-10.74994917
-11.74285574
-11.79387802
-11.79960846
-13.63086983
-13.7888326
-13.81283322
-11.78753671
-11.84003305
-11.84613818
-13.58105181
-13.73353461
-13.75561949
-13.86421083
-14.09962606
-14.36570212
-14.12534974
-14.32874734
-14.37433284
-14.07672916
-14.27524386
-14.31611503
-14.13856707
-14.386615
-14.57243416
-11.7549041
-11.81155791
-11.81874196
-12.32358471
-12.39791387
-12.40748891
-12.33613406
-12.41837917
-12.42988101
-12.9890366
-13.10146524
-13.11817596
-13.61681972
-13.78248958
-13.80914894
-12.97459217
-13.09531623
-13.11403428
-11.77154994
-11.8306078
-11.8383932
-12.36952883
-12.44682856
-12.45711954
-12.3536183
-12.43914832
-12.45140699
-12.94154317
-13.04932726
-13.0648426
-13.59712778
-13.75949435
-13.78465268
-12.95567588
-13.0729432
-13.09091566
-13.86911939
-14.09144985
-14.35632335
-13.52984346
-13.74141076
-14.1006472
-13.56703506
-13.75188074
-14.09896595
-14.10826187
-14.31650933
-14.36702111
-14.34775809
-14.57646031
-14.65313147
-14.32603096
-14.55499084
-14.63763034
-14.30631263
-14.53278384
-14.60016353
-14.08930998
-14.29546653
-14.34314912
-14.30993174
-14.53865776
-14.61773009
-14.12868422
-14.3660747
-14.55696539
-14.33984981
-14.58575383
-14.70554814
-14.32008132
-14.56048195
-14.68761002
-6.566196776
-6.566149088
-6.567476739
-6.538698778
-6.536965254
-6.537017405
-5.828568005
-5.418693594
-3.335226852
-9.035260537
-11.61436619
-10.11460466
-9.592209944
-12.0241523
-11.88132894
-9.216100144
-8.512987825
-8.275448812
-11.51504907
-8.256949455
-6.373068589
-10.84214882
-11.13099393
-10.5362416
-10.10492911
-10.16747177
-9.661285655
-10.60009997
-9.721994843
-10.65914946
-10.03309503
-11.222501
-12.16931593
-11.22663376
-11.33592517
-11.89929381
-10.86496482
-12.16394926
-10.92885134
-12.19155447
-11.2908743
-9.233092328
-8.809541808
-7.297917624
-8.308970308
-10.119558
-7.318239778
-10.15980227
-8.779224866
-9.819253334
-11.53804268
-10.43434052
-11.05472284
-10.49601598
-11.07801484
-9.768683677
-8.282727946
-6.542971964
-6.564759114
-7.829725414
-6.9173894
-6.5695265
-5.867992136
-6.595496748
-7.790320831
-6.968593244
-7.045138376
-8.697206032
-7.681464248
-9.338089955
-8.562097115
-9.389226172
-8.641885695
-7.732828691
-5.455144877
-6.40500215
-5.476829068
-3.433419097
-4.162170269
-4.211410279
-3.409007134
-12.10146265
-12.2432074
-12.26419419
-10.31235841
-10.35503174
-10.36001304
-12.61667146
-12.79930357
-12.83630714
-12.68325421
-12.91968948
-13.07210245
-10.01787411
-10.28755541
-10.790272
-9.14745748
-9.408428914
-10.35521929
-11.47776363
-11.57308483
-11.58660378
-10.37737135
-10.42408335
-10.43025828
-10.87085213
-10.93637681
-10.94513314
-10.94074592
-11.01138041
-11.02159336
-12.8531964
-13.06691281
-13.13067045
-12.7175806
-12.94829638
-13.12547821
-12.88840208
-13.11602127
-13.21216292
-12.91914273
-13.14208702
-13.25309118
-10.0563877
-10.31040345
-10.92513713
-9.127227705
-9.36483956
-10.49238196
-8.364067586
-9.227032859
-10.85093062
-12.42501061
-12.65712213
-12.88293105
-11.40301308
-11.60405168
-12.0686103
-11.55977497
-11.72904476
-12.24316866
-12.47809654
-12.70214119
-12.96251821
-12.09016943
-12.3019464
-12.61227872
-12.17953401
-12.37434605
-12.73541069
-8.324042412
-9.181208455
-11.45253389
0.04163260476
-0.1223009543
-0.1282629489
2.613423464
3.326489431
4.127961029
3.108033212
3.167948652
7.831199721
1.253198154
1.131597899
3.686251497
3.366168833
1.420360151
1.081610055
3.716542402
1.107644718
1.45592049
1.18146665
2.969023696
2.608851139
1.497530721
1.171760568
2.987878076
6.448585768
7.892306254
6.517912397
6.035517676
5.232999943
5.28680264
5.993621839
2.605397013
3.365543037
1.120811441
1.115194463
3.72783727
3.46526592
1.024260431
1.346906119
3.796996291
1.104571439
1.465947343
1.171157271
2.600123941
2.992695318
1.157160625
1.505822949
3.04207362
0.853347559
3.093752541
1.917664045
3.907998541
2.616032039
4.165609085
7.840245137
3.123168572
3.102858531
3.146612551
4.233874315
7.892062928
0.9318364153
0.8140752598
3.85896951
3.598435896
0.9102836977
0.8873235349
3.820195039
1.077893464
1.402788154
1.099268586
2.604074073
3.114472162
1.346510326
1.127736728
3.078248023
6.549786738
7.932842714
6.537720832
5.906623326
5.055930832
5.823042929
5.140410391
6.464905436
7.968122547
6.525443777
5.897925673
5.193118874
5.160005769
5.942977315
2.504209111
1.511114988
1.912293718