# Force and moment coefficients
# dragDir         : (1.0000000000e+00 0.0000000000e+00 0.0000000000e+00)
# sideDir         : (0.0000000000e+00 0.0000000000e+00 -1.0000000000e+00)
# liftDir         : (0.0000000000e+00 1.0000000000e+00 0.0000000000e+00)
# rollAxis        : (1.0000000000e+00 0.0000000000e+00 0.0000000000e+00)
# pitchAxis       : (0.0000000000e+00 0.0000000000e+00 -1.0000000000e+00)
# yawAxis         : (0.0000000000e+00 1.0000000000e+00 0.0000000000e+00)
# magUInf         : 7.5000000000e+00
# lRef            : 1.0000000000e-01
# Aref            : 3.0000000000e-02
# CofR            : (0.0000000000e+00 0.0000000000e+00 0.0000000000e+00)
#
# Time            	Cd                	Cd(f)             	Cd(r)             	Cl                	Cl(f)             	Cl(r)             	CmPitch           	CmRoll            	CmYaw             	Cs                	Cs(f)             	Cs(r)             
1                 	5.2350613416e-01	1.8278491265e-01	3.4072122152e-01	5.6989039616e-02	-1.2481499621e-01	1.8180403583e-01	-1.5330951602e-01	-7.8968154437e-02	7.7531553641e-01	1.0200552442e-03	7.7582556403e-01	-7.7480550879e-01
2                 	1.2656859321e-01	-2.1080928537e-01	3.3737787859e-01	1.9122662905e-01	6.8539595909e-02	1.2268703314e-01	-2.7073718618e-02	-2.7409358198e-01	1.8966296003e-01	-9.1345587229e-03	1.8509568067e-01	-1.9423023939e-01
3                 	-1.0451144569e-01	-3.0370364796e-01	1.9919220227e-01	1.7656283279e-01	1.3417776981e-01	4.2385062975e-02	4.5896353419e-02	-2.5144792511e-01	-1.5156555499e-01	-7.5343959573e-03	-1.5533275297e-01	1.4779835701e-01
4                 	-3.6223719157e-02	-9.1135141981e-02	5.4911422824e-02	5.6091364019e-02	2.5179100234e-02	3.0912263785e-02	-2.8665817752e-03	-7.3023282403e-02	-5.1245698019e-02	-2.5170226150e-04	-5.1371549150e-02	5.1119846888e-02
5                 	7.3370874067e-02	-8.0226011249e-02	1.5359688532e-01	8.4748278244e-02	2.8542823656e-03	8.1893995878e-02	-3.9519856756e-02	-1.1691144828e-01	1.1039976789e-01	-8.5569694375e-04	1.0997191942e-01	-1.1082761637e-01
6                 	8.2490169522e-02	-1.9696203485e-01	2.7945220437e-01	1.6814217577e-01	5.9988006509e-02	1.0815416926e-01	-2.4083081376e-02	-2.3820711961e-01	1.2352537339e-01	-5.0958221494e-03	1.2097746231e-01	-1.2607328446e-01
7                 	3.9019431559e-02	-2.0164964096e-01	2.4066907252e-01	1.5856395071e-01	7.4557985785e-02	8.4005964924e-02	-4.7239895693e-03	-2.2115935674e-01	5.9164846181e-02	-5.1074791248e-03	5.6611106619e-02	-6.1718585743e-02
8                 	2.1436187911e-02	-1.6650759558e-01	1.8794378349e-01	1.2984644671e-01	5.7416567566e-02	7.2429879145e-02	-7.5066557899e-03	-1.7722568954e-01	3.3405466955e-02	-3.1048581733e-03	3.1853037868e-02	-3.4957896042e-02
9                 	3.1943225570e-02	-1.8693325286e-01	2.1887647843e-01	1.4717127603e-01	5.9047627420e-02	8.8123648611e-02	-1.4538010595e-02	-2.0290486564e-01	4.9334140316e-02	-3.1524425347e-03	4.7757919049e-02	-5.0910361584e-02
10                	3.5765268184e-02	-2.1544713509e-01	2.5121240328e-01	1.6832407841e-01	7.4241561935e-02	9.4082516475e-02	-9.9204772699e-03	-2.3332976918e-01	5.5196939658e-02	-4.2329892340e-03	5.3080445041e-02	-5.7313434275e-02
11                	3.0934876409e-02	-1.9880747106e-01	2.2974234747e-01	1.5566159830e-01	7.3640311230e-02	8.2021287066e-02	-4.1904879178e-03	-2.1427490927e-01	4.7845397392e-02	-4.1892991536e-03	4.5750747815e-02	-4.9940046969e-02
12                	3.0524636801e-02	-1.9022632644e-01	2.2075096324e-01	1.4983192469e-01	6.8815993678e-02	8.1015931011e-02	-6.0999686664e-03	-2.0548864484e-01	4.7002832251e-02	-3.5353516099e-03	4.5235156446e-02	-4.8770508056e-02
13                	3.3691265577e-02	-2.0598700539e-01	2.3967827097e-01	1.6188519122e-01	7.0319104653e-02	9.1566086570e-02	-1.0623490958e-02	-2.2283263818e-01	5.1606233819e-02	-3.4707200877e-03	4.9870873775e-02	-5.3341593863e-02
14                	3.0882124904e-02	-2.2227662635e-01	2.5315875125e-01	1.7273698350e-01	7.7814350949e-02	9.4922632548e-02	-8.5541407995e-03	-2.3771768880e-01	4.7698099464e-02	-3.7827097313e-03	4.5806744598e-02	-4.9589454329e-02
15                	2.7905677417e-02	-2.1407429281e-01	2.4197997023e-01	1.6645384828e-01	7.8489447349e-02	8.7964400935e-02	-4.7374767933e-03	-2.2802713152e-01	4.3451237530e-02	-3.8580023013e-03	4.1522236380e-02	-4.5380238681e-02
16                	2.9446312389e-02	-2.0937992291e-01	2.3882623530e-01	1.6349956476e-01	7.7253528241e-02	8.6246036515e-02	-4.4962541369e-03	-2.2410307910e-01	4.5701174332e-02	-3.7449365936e-03	4.3828706036e-02	-4.7573642629e-02
17                	3.2258463853e-02	-2.1824666997e-01	2.5050513383e-01	1.7027346745e-01	7.7033856176e-02	9.3239611279e-02	-8.1028775515e-03	-2.3437590190e-01	4.9669783891e-02	-3.7385023185e-03	4.7800532732e-02	-5.1539035050e-02
18                	3.0082793353e-02	-2.3244097021e-01	2.6252376356e-01	1.8019427914e-01	8.1230694043e-02	9.8963585092e-02	-8.8664455248e-03	-2.4748236689e-01	4.6443697292e-02	-3.7810231322e-03	4.4553185726e-02	-4.8334208858e-02
19                	2.7246593172e-02	-2.3378229953e-01	2.6102889270e-01	1.8116574328e-01	8.3284208636e-02	9.7881534647e-02	-7.2986630056e-03	-2.4740559611e-01	4.2334457300e-02	-3.7222312298e-03	4.0473341685e-02	-4.4195572915e-02
20                	2.7752181651e-02	-2.3051967039e-01	2.5827185204e-01	1.7915251282e-01	8.4365455602e-02	9.4787057214e-02	-5.2108008060e-03	-2.4439576121e-01	4.3227386107e-02	-3.6550302551e-03	4.1399870979e-02	-4.5054901234e-02
21                	3.1311367119e-02	-2.2844058799e-01	2.5975195511e-01	1.7843759409e-01	8.3184596205e-02	9.5252997890e-02	-6.0342008428e-03	-2.4409627155e-01	4.8443726772e-02	-3.6950165594e-03	4.6596218492e-02	-5.0291235051e-02
22                	3.1629239202e-02	-2.3702150481e-01	2.6865074401e-01	1.8449299569e-01	8.4849859087e-02	9.9643136607e-02	-7.3966387599e-03	-2.5283612441e-01	4.8785400469e-02	-3.7846290263e-03	4.6893085956e-02	-5.0677714982e-02
23                	2.9276097158e-02	-2.4513858899e-01	2.7441468615e-01	1.9011199441e-01	8.6721669223e-02	1.0339032519e-01	-8.3343279819e-03	-2.5977663757e-01	4.5217060714e-02	-3.8053485069e-03	4.3314386460e-02	-4.7119734967e-02
24                	2.7058995596e-02	-2.5000032081e-01	2.7705931640e-01	1.9361010510e-01	8.9401501383e-02	1.0420860371e-01	-7.4035511655e-03	-2.6352981861e-01	4.2046143875e-02	-3.7469861790e-03	4.0172650786e-02	-4.3919636965e-02
25                	2.8431731961e-02	-2.4978643133e-01	2.7821816329e-01	1.9427471645e-01	9.0113296457e-02	1.0416141999e-01	-7.0240617681e-03	-2.6400229731e-01	4.4151514370e-02	-3.7007455895e-03	4.2301141576e-02	-4.6001887165e-02
26                	3.0244696706e-02	-2.5094764141e-01	2.8119233812e-01	1.9571105921e-01	9.1549093451e-02	1.0416196575e-01	-6.3064361515e-03	-2.6606998976e-01	4.6849768907e-02	-3.7175460228e-03	4.4990995895e-02	-4.8708541918e-02
27                	3.1109365960e-02	-2.5185642569e-01	2.8296579165e-01	1.9667140183e-01	9.1666185232e-02	1.0500521660e-01	-6.6695156815e-03	-2.6741110867e-01	4.8015501874e-02	-3.7586250246e-03	4.6136189362e-02	-4.9894814386e-02
28                	2.9678279854e-02	-2.5493631384e-01	2.8461459369e-01	1.9877100821e-01	9.3045937484e-02	1.0572507073e-01	-6.3395666206e-03	-2.6977545377e-01	4.5848726814e-02	-3.7837454951e-03	4.3956854066e-02	-4.7740599561e-02
29                	2.8924578775e-02	-2.5724683902e-01	2.8617141779e-01	2.0065648186e-01	9.3708082146e-02	1.0694839972e-01	-6.6201587848e-03	-2.7170912841e-01	4.4689402278e-02	-3.7811853902e-03	4.2798809583e-02	-4.6579994973e-02
30                	2.8775158596e-02	-2.6075314294e-01	2.8952830154e-01	2.0346852746e-01	9.5513872154e-02	1.0795465531e-01	-6.2203915765e-03	-2.7514072224e-01	4.4575195745e-02	-3.7639560967e-03	4.2693217696e-02	-4.6457173793e-02
31                	2.9832584485e-02	-2.6074560768e-01	2.9057819217e-01	2.0397997232e-01	9.5705627120e-02	1.0827434520e-01	-6.2843590422e-03	-2.7566189993e-01	4.6165379054e-02	-3.7540044300e-03	4.4288376839e-02	-4.8042381269e-02
32                	3.0006302768e-02	-2.6220105858e-01	2.9220736134e-01	2.0535286207e-01	9.6933799066e-02	1.0841906301e-01	-5.7426319702e-03	-2.7720420996e-01	4.6420579891e-02	-3.7527819530e-03	4.4544188915e-02	-4.8296970868e-02
33                	3.0103673527e-02	-2.6223728328e-01	2.9234095681e-01	2.0559238033e-01	9.7070935099e-02	1.0852144523e-01	-5.7252550633e-03	-2.7728912005e-01	4.6461509221e-02	-3.7648874683e-03	4.4579065487e-02	-4.8343952956e-02
34                	2.9463732340e-02	-2.6371933658e-01	2.9318306892e-01	2.0667853077e-01	9.8147784607e-02	1.0853074617e-01	-5.1914807789e-03	-2.7845120275e-01	4.5551241424e-02	-3.7827173842e-03	4.3659882732e-02	-4.7442600116e-02
35                	2.9630565537e-02	-2.6265458745e-01	2.9228515298e-01	2.0618998735e-01	9.7958317644e-02	1.0823166970e-01	-5.1366760296e-03	-2.7746987021e-01	4.5798766114e-02	-3.7936169797e-03	4.3901957625e-02	-4.7695574604e-02
36                	2.9533055411e-02	-2.6318546021e-01	2.9271851562e-01	2.0680069514e-01	9.8783908049e-02	1.0801678709e-01	-4.6164395222e-03	-2.7795198792e-01	4.5695459893e-02	-3.7852654764e-03	4.3802827155e-02	-4.7588092632e-02
37                	2.9886746888e-02	-2.6201433420e-01	2.9190108109e-01	2.0623296919e-01	9.8507133170e-02	1.0772583602e-01	-4.6093514249e-03	-2.7695770765e-01	4.6144609764e-02	-3.7745220081e-03	4.4257348759e-02	-4.8031870768e-02
38                	2.9597460542e-02	-2.6276258301e-01	2.9236004355e-01	2.0692958610e-01	9.9256908811e-02	1.0767267728e-01	-4.2078842364e-03	-2.7756131328e-01	4.5757149136e-02	-3.7736932246e-03	4.3870302523e-02	-4.7643995748e-02
39                	2.9841411805e-02	-2.6117620715e-01	2.9101761896e-01	2.0603225121e-01	9.8821083731e-02	1.0721116748e-01	-4.1950418733e-03	-2.7609691305e-01	4.6076922556e-02	-3.7870589608e-03	4.4183393076e-02	-4.7970452037e-02
40                	2.9565599844e-02	-2.6147308044e-01	2.9103868029e-01	2.0628701741e-01	9.9414836088e-02	1.0687218132e-01	-3.7286726149e-03	-2.7625588036e-01	4.5705926743e-02	-3.7958525605e-03	4.3808000463e-02	-4.7603853023e-02
41                	2.9788916225e-02	-2.5947363351e-01	2.8926254973e-01	2.0504868976e-01	9.8784461530e-02	1.0626422823e-01	-3.7398833519e-03	-2.7436809162e-01	4.5984158883e-02	-3.7967250452e-03	4.4085796361e-02	-4.7882521406e-02
42                	2.9473511248e-02	-2.5976735149e-01	2.8924086274e-01	2.0527078204e-01	9.9336458742e-02	1.0593432330e-01	-3.2989322781e-03	-2.7450410711e-01	4.5580966454e-02	-3.7899274052e-03	4.3686002752e-02	-4.7475930157e-02
43                	2.9729769416e-02	-2.5755744263e-01	2.8728721205e-01	2.0386884567e-01	9.8619385924e-02	1.0524945975e-01	-3.3150369130e-03	-2.7242232734e-01	4.5909395788e-02	-3.7889907835e-03	4.4014900396e-02	-4.7803891180e-02
44                	2.9432957401e-02	-2.5742339623e-01	2.8685635363e-01	2.0371761670e-01	9.9007554425e-02	1.0471006227e-01	-2.8512539235e-03	-2.7213987493e-01	4.5513215722e-02	-3.7893023826e-03	4.3618564531e-02	-4.7407866913e-02
45                	2.9643972545e-02	-2.5483700320e-01	2.8448097575e-01	2.0199809303e-01	9.8176903598e-02	1.0382118943e-01	-2.8221429146e-03	-2.6965898947e-01	4.5780778184e-02	-3.7948272094e-03	4.3883364580e-02	-4.7678191789e-02
46                	2.9285403834e-02	-2.5443749906e-01	2.8372290290e-01	2.0162297185e-01	9.8457584572e-02	1.0316538727e-01	-2.3539013517e-03	-2.6908020098e-01	4.5303929541e-02	-3.7957474755e-03	4.3406055803e-02	-4.7201803279e-02
47                	2.9513108303e-02	-2.5158042560e-01	2.8109353390e-01	1.9965229927e-01	9.7494427865e-02	1.0215787141e-01	-2.3317217724e-03	-2.6633697975e-01	4.5612656473e-02	-3.7961313072e-03	4.3714590820e-02	-4.7510722127e-02
48                	2.9188146009e-02	-2.5087450131e-01	2.8006264732e-01	1.9894337426e-01	9.7623234902e-02	1.0132013936e-01	-1.8484522281e-03	-2.6546857431e-01	4.5185547494e-02	-3.7913570412e-03	4.3289868973e-02	-4.7081226014e-02
49                	2.9383787991e-02	-2.4758639912e-01	2.7697018711e-01	1.9663145924e-01	9.6474190698e-02	1.0015726854e-01	-1.8415389209e-03	-2.6227829311e-01	4.5445273685e-02	-3.7899528519e-03	4.3550297259e-02	-4.7340250111e-02
50                	2.8984503505e-02	-2.4675027860e-01	2.7573478211e-01	1.9580392398e-01	9.6524869132e-02	9.9279054843e-02	-1.3770928554e-03	-2.6124253035e-01	4.4898835151e-02	-3.7929678157e-03	4.3002351244e-02	-4.6795319059e-02
51                	2.9208343326e-02	-2.4339295165e-01	2.7260129498e-01	1.9339741579e-01	9.5322199720e-02	9.8075216065e-02	-1.3765081720e-03	-2.5799712331e-01	4.5206272537e-02	-3.7943518948e-03	4.3309096589e-02	-4.7103448484e-02
52                	2.8896156994e-02	-2.4221492548e-01	2.7111108248e-01	1.9229476056e-01	9.5187696228e-02	9.7107064330e-02	-9.5968405109e-04	-2.5666300398e-01	4.4809810236e-02	-3.7893692820e-03	4.2915125595e-02	-4.6704494877e-02
53                	2.9080725497e-02	-2.3863225417e-01	2.6771297966e-01	1.8970316415e-01	9.3855378030e-02	9.5847786124e-02	-9.9620404705e-04	-2.5317261692e-01	4.5054784008e-02	-3.7853233323e-03	4.3162122342e-02	-4.6947445674e-02
54                	2.8707065250e-02	-2.3772613131e-01	2.6643319656e-01	1.8873410535e-01	9.3770827576e-02	9.4963277774e-02	-5.9622509868e-04	-2.5207966393e-01	4.4548954128e-02	-3.7866631097e-03	4.2655622573e-02	-4.6442285682e-02
55                	2.8936396459e-02	-2.3411402234e-01	2.6305041879e-01	1.8613442562e-01	9.2352767888e-02	9.3781657734e-02	-7.1444492338e-04	-2.4858222057e-01	4.4862541337e-02	-3.7878904644e-03	4.2968596105e-02	-4.6756486569e-02
56                	2.8628810430e-02	-2.3311246066e-01	2.6174127109e-01	1.8511183706e-01	9.2177665137e-02	9.2934171923e-02	-3.7825339280e-04	-2.4742686588e-01	4.4446931218e-02	-3.7850309202e-03	4.2554415758e-02	-4.6339446678e-02
57                	2.8832136238e-02	-2.2967804087e-01	2.5851017711e-01	1.8260605105e-01	9.0793931423e-02	9.1812119623e-02	-5.0909409991e-04	-2.4409410899e-01	4.4731876570e-02	-3.7800772752e-03	4.2841837932e-02	-4.6621915208e-02
58                	2.8478065685e-02	-2.2882228875e-01	2.5730035443e-01	1.8169810479e-01	9.0625395045e-02	9.1072709742e-02	-2.2365734841e-04	-2.4306132159e-01	4.4264094880e-02	-3.7817975634e-03	4.2373196098e-02	-4.6154993661e-02
59                	2.8716760041e-02	-2.2555718145e-01	2.5427394149e-01	1.7929660345e-01	8.9248400627e-02	9.0048202819e-02	-3.9990109629e-04	-2.3991556147e-01	4.4585259337e-02	-3.7800117197e-03	4.2695253477e-02	-4.6475265197e-02
60                	2.8462438569e-02	-2.2480255262e-01	2.5326499119e-01	1.7846249509e-01	8.9089064199e-02	8.9373430893e-02	-1.4218334706e-04	-2.3903377190e-01	4.4248956196e-02	-3.7771203342e-03	4.2360396029e-02	-4.6137516363e-02
61                	2.8663936350e-02	-2.2167858960e-01	2.5034252595e-01	1.7615082310e-01	8.7742037206e-02	8.8408785893e-02	-3.3337434344e-04	-2.3601055777e-01	4.4516016868e-02	-3.7724803853e-03	4.2629776676e-02	-4.6402257061e-02
62                	2.8312837234e-02	-2.2124872067e-01	2.4956155790e-01	1.7554249152e-01	8.7679962692e-02	8.7862528831e-02	-9.1283069500e-05	-2.3540513928e-01	4.4041701867e-02	-3.7741697030e-03	4.2154617015e-02	-4.5928786718e-02
63                	2.8569842989e-02	-2.1835741762e-01	2.4692726061e-01	1.7340560074e-01	8.6378444041e-02	8.7027156702e-02	-3.2435633040e-04	-2.3264233912e-01	4.4400469812e-02	-3.7751398920e-03	4.2512899866e-02	-4.6288039758e-02
64                	2.8326876538e-02	-2.1787886934e-01	2.4620574588e-01	1.7284488955e-01	8.6305831237e-02	8.6539058309e-02	-1.1661353580e-04	-2.3204230761e-01	4.4079480621e-02	-3.7712458479e-03	4.2193857697e-02	-4.5965103545e-02
65                	2.8544731207e-02	-2.1502765061e-01	2.4357238181e-01	1.7074066249e-01	8.5015574172e-02	8.5725088315e-02	-3.5475707145e-04	-2.2930001621e-01	4.4353236447e-02	-3.7690615321e-03	4.2468705681e-02	-4.6237767213e-02
66                	2.8201056324e-02	-2.1495344953e-01	2.4315450586e-01	1.7043014197e-01	8.5092874304e-02	8.5337267661e-02	-1.2219667840e-04	-2.2905397770e-01	4.3894675392e-02	-3.7668517672e-03	4.2011249508e-02	-4.5778101275e-02
67                	2.8477457550e-02	-2.1227199136e-01	2.4074944891e-01	1.6852090993e-01	8.3883044260e-02	8.4637865666e-02	-3.7741070276e-04	-2.2651072013e-01	4.4280546542e-02	-3.7696789282e-03	4.2395707078e-02	-4.6165386006e-02
68                	2.8227757641e-02	-2.1207554576e-01	2.4030330340e-01	1.6817073863e-01	8.3901562240e-02	8.4269176386e-02	-1.8380707286e-04	-2.2618942458e-01	4.3929144268e-02	-3.7648486179e-03	4.2046719959e-02	-4.5811568577e-02
69                	2.8459369304e-02	-2.0961182041e-01	2.3807118971e-01	1.6634576616e-01	8.2736606468e-02	8.3609159691e-02	-4.3627661140e-04	-2.2384150506e-01	4.4243673118e-02	-3.7624954972e-03	4.2362425369e-02	-4.6124920866e-02
70                	2.8131689017e-02	-2.0973951505e-01	2.3787120407e-01	1.6624597892e-01	8.2885149747e-02	8.3360829177e-02	-2.3783971482e-04	-2.2380535956e-01	4.3809867679e-02	-3.7597932305e-03	4.1929971064e-02	-4.5689764295e-02
71                	2.8407968110e-02	-2.0739675819e-01	2.3580472630e-01	1.6454734137e-01	8.1767156648e-02	8.2780184720e-02	-5.0651403605e-04	-2.2160074224e-01	4.4179859271e-02	-3.7640761142e-03	4.2297821214e-02	-4.6061897328e-02
72                	2.8167538985e-02	-2.0752022231e-01	2.3568776129e-01	1.6444486925e-01	8.1898465711e-02	8.2546403538e-02	-3.2396891361e-04	-2.2160399180e-01	4.3859710601e-02	-3.7602780356e-03	4.1979571583e-02	-4.5739849619e-02
73                	2.8403136127e-02	-2.0535539707e-01	2.3375853320e-01	1.6284931041e-01	8.0848205564e-02	8.2001104848e-02	-5.7644964196e-04	-2.1955696514e-01	4.4178179643e-02	-3.7569761766e-03	4.2299691555e-02	-4.6056667731e-02
74                	2.8085953797e-02	-2.0567481109e-01	2.3376076489e-01	1.6290724475e-01	8.1058653950e-02	8.1848590803e-02	-3.9496842652e-04	-2.1971778799e-01	4.3750181276e-02	-3.7555314704e-03	4.1872415540e-02	-4.5627947011e-02
75                	2.8376399222e-02	-2.0357730278e-01	2.3195370200e-01	1.6139809020e-01	8.0023403698e-02	8.1374686502e-02	-6.7564140194e-04	-2.1776550239e-01	4.4143075529e-02	-3.7587224906e-03	4.2263714284e-02	-4.6022436774e-02
76                	2.8120257184e-02	-2.0383246125e-01	2.3195271843e-01	1.6146323610e-01	8.0239094654e-02	8.1224141449e-02	-4.9252339708e-04	-2.1789258984e-01	4.3788158803e-02	-3.7546815303e-03	4.1910818037e-02	-4.5665499568e-02
77                	2.8363357735e-02	-2.0191272676e-01	2.3027608449e-01	1.6003733139e-01	7.9289196144e-02	8.0748135248e-02	-7.2946955201e-04	-2.1609440562e-01	4.4104723794e-02	-3.7529462043e-03	4.2228250692e-02	-4.5981196896e-02
78                	2.8077601658e-02	-2.0231984859e-01	2.3039745025e-01	1.6022298546e-01	7.9556958741e-02	8.0666026719e-02	-5.5453398921e-04	-2.1635864942e-01	4.3758807641e-02	-3.7516251082e-03	4.1882995087e-02	-4.5634620195e-02
79                	2.8335351798e-02	-2.0036880456e-01	2.2870415636e-01	1.5886064726e-01	7.8594738463e-02	8.0265908802e-02	-8.3558516976e-04	-2.1453648046e-01	4.4082837567e-02	-3.7537942798e-03	4.2205940427e-02	-4.5959734706e-02
80                	2.8082203878e-02	-2.0094125464e-01	2.2902345852e-01	1.5913128388e-01	7.8922006138e-02	8.0209277738e-02	-6.4363580033e-04	-2.1498235658e-01	4.3714735319e-02	-3.7498123168e-03	4.1839829160e-02	-4.5589641477e-02
81                	2.8351210404e-02	-1.9907818870e-01	2.2742939911e-01	1.5779010329e-01	7.7984972050e-02	7.9805131239e-02	-9.1007959452e-04	-2.1325379390e-01	4.4083116944e-02	-3.7488549604e-03	4.2208689464e-02	-4.5957544424e-02
82                	2.8057995067e-02	-1.9964773823e-01	2.2770573330e-01	1.5813559281e-01	7.8351713588e-02	7.9783879224e-02	-7.1608281787e-04	-2.1367673577e-01	4.3724070621e-02	-3.7494742279e-03	4.1849333507e-02	-4.5598807735e-02
83                	2.8326838903e-02	-1.9784782036e-01	2.2617465926e-01	1.5687327175e-01	7.7450815126e-02	7.9422456628e-02	-9.8582075089e-04	-2.1201123981e-01	4.4054140110e-02	-3.7519906708e-03	4.2178144775e-02	-4.5930135445e-02
84                	2.8074137173e-02	-1.9848957676e-01	2.2656371394e-01	1.5723710105e-01	7.7835589105e-02	7.9401511943e-02	-7.8296141878e-04	-2.1252664535e-01	4.3700636938e-02	-3.7483843357e-03	4.1826444770e-02	-4.5574829106e-02
85                	2.8328861439e-02	-1.9666696073e-01	2.2499582217e-01	1.5595611090e-01	7.6932925925e-02	7.9023184977e-02	-1.0451295260e-03	-2.1083139145e-01	4.4035633455e-02	-3.7482697320e-03	4.2161498588e-02	-4.5909768321e-02
86                	2.8041120027e-02	-1.9741537965e-01	2.2545649967e-01	1.5642016871e-01	7.7376270217e-02	7.9043898493e-02	-8.3381413769e-04	-2.1143593966e-01	4.3670020055e-02	-3.7470108722e-03	4.1796514619e-02	-4.5543525491e-02
87                	2.8325333196e-02	-1.9574962921e-01	2.2407496241e-01	1.5524248027e-01	7.6519351246e-02	7.8723129024e-02	-1.1018888890e-03	-2.0991229581e-01	4.4048674585e-02	-3.7506842770e-03	4.2173332447e-02	-4.5924016724e-02
88                	2.8064324371e-02	-1.9634141412e-01	2.2440573849e-01	1.5563738174e-01	7.6910149512e-02	7.8727232231e-02	-9.0854135950e-04	-2.1037357631e-01	4.3678678023e-02	-3.7469002748e-03	4.1805227885e-02	-4.5552128160e-02
89                	2.8316665579e-02	-1.9467686084e-01	2.2299352642e-01	1.5444393588e-01	7.6068428546e-02	7.8375507331e-02	-1.1535393927e-03	-2.0883519363e-01	4.4003116156e-02	-3.7471122144e-03	4.2129560048e-02	-4.5876672263e-02
90                	2.8027968107e-02	-1.9558863838e-01	2.2361660649e-01	1.5501104489e-01	7.6575445152e-02	7.8435599740e-02	-9.3007729397e-04	-2.0960262244e-01	4.3637435724e-02	-3.7444953750e-03	4.1765188036e-02	-4.5509683411e-02
91                	2.8313396199e-02	-1.9379896224e-01	2.2211235844e-01	1.5384215523e-01	7.5704000880e-02	7.8138154348e-02	-1.2170767336e-03	-2.0795566034e-01	4.4024904968e-02	-3.7482928538e-03	4.2150758541e-02	-4.5899051394e-02
92                	2.8046676193e-02	-1.9472255077e-01	2.2276922697e-01	1.5437985176e-01	7.6196638890e-02	7.8183212875e-02	-9.9328699249e-04	-2.0874588887e-01	4.3633741889e-02	-3.7445696475e-03	4.1761457065e-02	-4.5506026713e-02
93                	2.8326425597e-02	-1.9307627111e-01	2.2140269670e-01	1.5324892042e-01	7.5376058692e-02	7.7872861724e-02	-1.2484015162e-03	-2.0723948391e-01	4.4025113630e-02	-3.7452246719e-03	4.2152501294e-02	-4.5897725966e-02
94                	2.8021140000e-02	-1.9392969412e-01	2.2195083412e-01	1.5381756752e-01	7.5878215784e-02	7.7939351733e-02	-1.0305679747e-03	-2.0794026412e-01	4.3623420946e-02	-3.7439181846e-03	4.1751461854e-02	-4.5495380038e-02
95                	2.8296754203e-02	-1.9223821399e-01	2.2053496819e-01	1.5269355894e-01	7.5058446746e-02	7.7635112195e-02	-1.2883327243e-03	-2.0638659109e-01	4.3979999661e-02	-3.7458807225e-03	4.2107059299e-02	-4.5852940022e-02
96                	2.8050125547e-02	-1.9321108225e-01	2.2126120780e-01	1.5330053195e-01	7.5602527901e-02	7.7698004044e-02	-1.0477380713e-03	-2.0723614502e-01	4.3637974935e-02	-3.7445910260e-03	4.1765679422e-02	-4.5510270448e-02
97                	2.8310106022e-02	-1.9147391990e-01	2.1978402593e-01	1.5215063730e-01	7.4753156232e-02	7.7397481068e-02	-1.3221624181e-03	-2.0562897292e-01	4.3982301952e-02	-3.7435746129e-03	4.2110514645e-02	-4.5854089258e-02
98                	2.7990874923e-02	-1.9263102172e-01	2.2062189665e-01	1.5285829971e-01	7.5348114389e-02	7.7510185320e-02	-1.0810354656e-03	-2.0662645919e-01	4.3553516642e-02	-3.7425658091e-03	4.1682233738e-02	-4.5424799547e-02
99                	2.8291700540e-02	-1.9101121338e-01	2.1930291392e-01	1.5180136315e-01	7.4541751334e-02	7.7259611817e-02	-1.3589302418e-03	-2.0515706365e-01	4.3973343364e-02	-3.7451197107e-03	4.2100783509e-02	-4.5845903220e-02
100               	2.8043761018e-02	-1.9199618009e-01	2.2003994111e-01	1.5244000773e-01	7.5090375305e-02	7.7349632423e-02	-1.1296285592e-03	-2.0601806060e-01	4.3626961596e-02	-3.7432639970e-03	4.1755329598e-02	-4.5498593595e-02
101               	2.8308890945e-02	-1.9041378580e-01	2.1872267674e-01	1.5136864372e-01	7.4300508821e-02	7.7068134895e-02	-1.3838130370e-03	-2.0456823127e-01	4.3966061381e-02	-3.7427306461e-03	4.2094696058e-02	-4.5837426704e-02
102               	2.8000026409e-02	-1.9166025675e-01	2.1966028315e-01	1.5214279534e-01	7.4933264000e-02	7.7209531340e-02	-1.1381336698e-03	-2.0566026995e-01	4.3567201534e-02	-3.7406760864e-03	4.1696863491e-02	-4.5437539577e-02
103               	2.8284245229e-02	-1.9000175615e-01	2.1828600138e-01	1.5109412999e-01	7.4119826671e-02	7.6974303317e-02	-1.4272383229e-03	-2.0414387877e-01	4.3954854766e-02	-3.7439872337e-03	4.2082861149e-02	-4.5826848383e-02
104               	2.8029138619e-02	-1.9116979345e-01	2.1919893207e-01	1.5181462837e-01	7.4725013575e-02	7.7089614791e-02	-1.1823006078e-03	-2.0518436276e-01	4.3583786896e-02	-3.7426087143e-03	4.1712482539e-02	-4.5455091253e-02
105               	2.8320241684e-02	-1.8966432855e-01	2.1798457023e-01	1.5078922410e-01	7.3960050786e-02	7.6829173316e-02	-1.4345612651e-03	-2.0382444939e-01	4.3994738724e-02	-3.7421847910e-03	4.2123646328e-02	-4.5865831119e-02
106               	2.8015881877e-02	-1.9077098677e-01	2.1878686865e-01	1.5154291050e-01	7.4576055866e-02	7.6966854638e-02	-1.1953993857e-03	-2.0477892771e-01	4.3602465068e-02	-3.7427665564e-03	4.1731081790e-02	-4.5473848346e-02
107               	2.8277323466e-02	-1.8930711328e-01	2.1758443675e-01	1.5056319947e-01	7.3830241013e-02	7.6732958452e-02	-1.4513587196e-03	-2.0344577501e-01	4.3928383024e-02	-3.7418928051e-03	4.2057436621e-02	-4.5799329426e-02
108               	2.8025906831e-02	-1.9048975749e-01	2.1851566432e-01	1.5131244634e-01	7.4445543600e-02	7.6866902737e-02	-1.2106795684e-03	-2.0450271091e-01	4.3578339606e-02	-3.7416162630e-03	4.1707531475e-02	-4.5449147738e-02
109               	2.8296441005e-02	-1.8894455494e-01	2.1724099594e-01	1.5028446050e-01	7.3665130414e-02	7.6619330086e-02	-1.4770998358e-03	-2.0309277544e-01	4.3941599295e-02	-3.7410727643e-03	4.2071062913e-02	-4.5812135677e-02
110               	2.8003230037e-02	-1.9025135680e-01	2.1825458683e-01	1.5112690642e-01	7.4347827912e-02	7.6779078508e-02	-1.2156252979e-03	-2.0425297182e-01	4.3560735132e-02	-3.7426398184e-03	4.1689415223e-02	-4.5432055041e-02
111               	2.8296981246e-02	-1.8877482954e-01	2.1707181079e-01	1.5014476189e-01	7.3580484315e-02	7.6564277576e-02	-1.4918966302e-03	-2.0292332016e-01	4.3971146216e-02	-3.7418160431e-03	4.2100238195e-02	-4.5842054238e-02
112               	2.8023104346e-02	-1.8986164230e-01	2.1788474665e-01	1.5088198082e-01	7.4178427618e-02	7.6703553205e-02	-1.2625627939e-03	-2.0387319448e-01	4.3579977665e-02	-3.7405348224e-03	4.1709710254e-02	-4.5450245076e-02
113               	2.8292922940e-02	-1.8860121220e-01	2.1689413514e-01	1.4996628297e-01	7.3475369704e-02	7.6490913269e-02	-1.5077717823e-03	-2.0274767367e-01	4.3918957495e-02	-3.7392892216e-03	4.2049312884e-02	-4.5788602105e-02
114               	2.8012272029e-02	-1.8988743615e-01	2.1789970818e-01	1.5081505931e-01	7.4144221172e-02	7.6670838138e-02	-1.2633084829e-03	-2.0389357216e-01	4.3580031818e-02	-3.7415630116e-03	4.1709250312e-02	-4.5450813324e-02
115               	2.8280038767e-02	-1.8846006033e-01	2.1674009909e-01	1.4987801954e-01	7.3400970740e-02	7.6477048796e-02	-1.5380390278e-03	-2.0260007971e-01	4.3940175502e-02	-3.7412608565e-03	4.2069545074e-02	-4.5810805930e-02
116               	2.8025962772e-02	-1.8976584781e-01	2.1779181059e-01	1.5070646315e-01	7.4055622745e-02	7.6650840404e-02	-1.2976088294e-03	-2.0377882920e-01	4.3576714868e-02	-3.7403081969e-03	4.1706560770e-02	-4.5446868967e-02
117               	2.8306827568e-02	-1.8848841396e-01	2.1679524153e-01	1.4979644856e-01	7.3339303685e-02	7.6457144874e-02	-1.5589205946e-03	-2.0264182774e-01	4.3955162527e-02	-3.7382359090e-03	4.2086044573e-02	-4.5824280482e-02
118               	2.8022231874e-02	-1.8974437536e-01	2.1776660723e-01	1.5064729730e-01	7.3995539195e-02	7.6651758101e-02	-1.3281094532e-03	-2.0375549130e-01	4.3606601428e-02	-3.7403001428e-03	4.1736451357e-02	-4.5476751499e-02
119               	2.8288077791e-02	-1.8848238438e-01	2.1677046217e-01	1.4978860872e-01	7.3318622221e-02	7.6469986503e-02	-1.5756821410e-03	-2.0262642327e-01	4.3944887593e-02	-3.7404369333e-03	4.2074669127e-02	-4.5815106060e-02
120               	2.8027218884e-02	-1.8977931203e-01	2.1780653092e-01	1.5061623158e-01	7.3967949999e-02	7.6648281578e-02	-1.3401657894e-03	-2.0379292148e-01	4.3584985238e-02	-3.7397428603e-03	4.1715113808e-02	-4.5454856668e-02
121               	2.8301532707e-02	-1.8843139310e-01	2.1673292581e-01	1.4971288397e-01	7.3259817756e-02	7.6453066219e-02	-1.5966242314e-03	-2.0258215946e-01	4.3948021436e-02	-3.7379366751e-03	4.2079053098e-02	-4.5816989774e-02
122               	2.8016531174e-02	-1.8978077365e-01	2.1779730483e-01	1.5058629811e-01	7.3939842743e-02	7.6646455368e-02	-1.3533063126e-03	-2.0378903924e-01	4.3585114279e-02	-3.7390926582e-03	4.1715567950e-02	-4.5454660608e-02
123               	2.8297583907e-02	-1.8849569577e-01	2.1679327968e-01	1.4973097026e-01	7.3257379691e-02	7.6473590568e-02	-1.6081054387e-03	-2.0264448773e-01	4.3971212142e-02	-3.7399773464e-03	4.2101223469e-02	-4.5841200815e-02
124               	2.8037376239e-02	-1.8968714403e-01	2.1772452026e-01	1.5052877479e-01	7.3886998449e-02	7.6641776340e-02	-1.3773889455e-03	-2.0370583214e-01	4.3609554535e-02	-3.7390457136e-03	4.1740031679e-02	-4.5479077392e-02
125               	2.8314599206e-02	-1.8848498790e-01	2.1679958711e-01	1.4968800794e-01	7.3234803148e-02	7.6453204791e-02	-1.6092008214e-03	-2.0264228751e-01	4.3963854537e-02	-3.7385334859e-03	4.2094587794e-02	-4.5833121280e-02
126               	2.8028360332e-02	-1.8984446885e-01	2.1787282918e-01	1.5057756629e-01	7.3913802922e-02	7.6663763372e-02	-1.3749802252e-03	-2.0385864901e-01	4.3611992554e-02	-3.7403420759e-03	4.1741821516e-02	-4.5482163592e-02
127               	2.8293559216e-02	-1.8847790472e-01	2.1677146394e-01	1.4969804751e-01	7.3213525443e-02	7.6484522062e-02	-1.6354983096e-03	-2.0262468433e-01	4.3968705570e-02	-3.7404912229e-03	4.2098459959e-02	-4.5838951182e-02