/*--------------------------------*- C++ -*----------------------------------*\
| =========                 |                                                 |
| \\      /  F ield         | OpenFOAM: The Open Source CFD Toolbox           |
|  \\    /   O peration     | Version:  2406                                  |
|   \\  /    A nd           | Website:  www.openfoam.com                      |
|    \\/     M anipulation  |                                                 |
\*---------------------------------------------------------------------------*/
FoamFile
{
    version     2.0;
    format      ascii;
    arch        "LSB;label=32;scalar=64";
    class       volScalarField;
    location    "500";
    object      p;
}
// * * * * * * * * * * * * * * * * * * * * * * * * * * * * * * * * * * * * * //

dimensions      [0 2 -2 0 0 0 0];

internalField   nonuniform List<scalar> 
124023
(
0.0002431734356
-0.003256189784
0.0001597653207
-0.0006069350865
-0.001478807579
-0.001204630465
0.001090390266
0.002572344655
0.0006523198452
0.002679582264
0.002571181264
0.001070508808
0.001493510757
0.001593860142
-0.0005920435757
-0.002184530579
-0.00516409776
-0.005342053983
-0.004939863989
-0.004819670893
-0.002329697407
-0.00281333343
-0.002924975332
-0.02856548712
-0.0305468921
-0.01898259936
0.01485339115
-0.04617345507
-0.04603189768
-0.04208441762
-0.03073089703
-0.04228825438
0.0162648001
-0.01649985721
0.00637524582
0.0007363842152
-0.04168666991
-0.04181676941
0.02328941112
0.0227408501
-0.0332723434
-0.01911480029
-0.03287445205
0.01603147953
0.0008944919982
0.01583724011
0.0008520755807
0.03375868266
0.03226886714
0.03225263162
0.03368782238
-0.04569313892
-0.04555113696
-0.04433627514
-0.03744428189
-0.04266855011
-0.05087982361
-0.0375176088
-0.04442820754
-0.05088727826
-0.04439067463
-0.05067710648
-0.04259794437
-0.03754995471
-0.03758621242
-0.05077084408
-0.04449585429
-0.04171424449
-0.03411737373
-0.0342127828
-0.04143267889
-0.03469780324
-0.0341390032
-0.009056461514
-0.0112888867
0.03187983746
0.02315850576
-0.01001588505
-0.0107969536
0.0321191834
-0.009801815304
-0.01062155779
0.02344912172
0.03199108631
-0.009121501679
-0.01070169413
0.03203724319
-0.02870730238
-0.03979843908
-0.03401760439
-0.03570402506
-0.03064083706
-0.03402895538
-0.03580709734
-0.03976716986
0.02220349871
0.01186536965
0.02260920827
0.01484547367
0.02259347893
0.02213970443
0.01196359194
-0.03991017036
-0.03072531606
-0.03415587444
-0.03590455486
-0.03412968721
-0.03588035889
-0.03997970531
-0.02887938871
-0.03348240489
-0.02902054124
-0.01963020801
-0.02344381312
-0.0195464365
-0.02357506137
-0.03315583683
-0.02881121544
-0.02899097276
-0.0196108309
-0.02324729297
-0.02332345454
-0.01949864649
-0.00435200112
-0.00523805066
0.01595464467
0.0088261636
-0.005246594989
-0.004299078423
0.00880781277
-0.004385339417
-0.005248239351
0.01609083494
0.008745162773
-0.004376279272
-0.005333391746
0.008832844895
0.04389933386
0.04734006669
0.03387754705
0.03380410261
0.04736458927
0.0338821769
0.04387706905
0.04387865824
0.03380311331
0.04734254812
0.03386778438
0.04394638564
0.04740358122
0.03387948499
0.009229042413
0.00461813553
-0.016736894
-0.002149480939
-0.002419894528
-0.03041651759
-0.01888514201
-0.04650689046
-0.04175314215
-0.04188346418
-0.03285744576
-0.04550940071
-0.04422432508
-0.03725676166
-0.04231988394
-0.05076368524
-0.03739169371
-0.05072243492
-0.04430236847
-0.04126211127
-0.03468662297
-0.03409001497
-0.03962697443
-0.03398113364
-0.03562578807
-0.03026681713
-0.03383057593
-0.03971684381
-0.03549423041
-0.02827331864
-0.02863799477
-0.03306076748
-0.02883235962
-0.01949631331
-0.02331091686
-0.02336660856
-0.01939125397
0.01488040665
0.03918866347
0.008730573395
0.005471303806
0.005514632225
0.004212190814
0.0149015658
0.02343218557
0.01232356062
0.08004223606
0.003015625167
0.06655661377
0.06486437341
0.05385893692
0.0595577819
0.08030841136
0.06494613123
0.05963859639
0.05395014259
0.06480097203
0.005275022808
0.005717898184
0.004233170885
0.01228793777
0.0006470345462
0.008570516991
0.004548336418
0.005327532216
0.008616290434
0.009157884831
-0.01511061617
-0.02276310608
-0.03716585306
-0.02687486707
-0.03436149317
-0.02282857278
-0.03893025982
-0.04351795935
-0.03659059036
-0.03590051601
-0.02909551059
-0.03143609271
-0.03191970931
-0.03720580081
-0.03353127978
-0.03352302106
-0.04187863948
-0.03727331394
-0.04201486539
-0.03303976194
-0.04358514684
-0.04530374069
-0.04346133483
-0.04192896721
-0.04524509475
-0.04364974511
-0.04187087675
-0.03655761252
-0.03373909286
-0.03569236229
-0.03501343308
-0.03423041446
-0.03378067118
-0.0349559457
-0.0341799606
-0.03714685759
-0.03558332689
-0.03551332659
-0.03349342586
-0.0342064632
-0.03416623328
-0.03625304888
-0.03335518672
-0.03917471806
-0.03377871701
-0.03910293123
-0.0337413779
-0.03629656794
-0.03835346632
-0.04012083184
-0.04059346128
-0.04191440858
-0.04016054454
-0.04062862298
-0.03830893709
-0.03839581733
-0.04073291978
-0.04195942387
-0.04025476229
-0.04020227036
-0.04067599984
-0.0384413416
-0.03701607573
-0.0340106425
-0.03874219806
-0.03584168791
-0.0371651593
-0.03719085272
-0.03719976264
-0.03588026503
-0.03876334784
-0.02471652289
-0.02694303726
-0.0267075027
-0.02478688275
-0.02925717594
-0.02701244428
-0.03153783897
-0.02954310972
-0.03442633101
-0.03160586653
-0.03189090111
-0.029612409
-0.04193525788
-0.03889502334
-0.0401907102
-0.0404420242
-0.0419765794
-0.0401543588
-0.04040396758
-0.03031799163
-0.03142846383
-0.03029250407
-0.03183598406
-0.0330686409
-0.03186589022
-0.03305595831
-0.03724128343
-0.03724043393
-0.03884944771
-0.03595075085
-0.03592060011
-0.03881530364
-0.03727226249
-0.03570553471
-0.03389441819
-0.03301431355
-0.0343609765
-0.03433346295
-0.03387618665
-0.03572493717
-0.01584644504
-0.01177980043
-0.01787828833
-0.004969763628
-0.01050158299
-0.004990867357
-6.508852697e-07
-0.005470262965
-0.0197278037
-0.01966911349
-0.01955513575
-0.01735548328
-0.0174519768
-0.0228826212
-0.01982955887
-0.01408705128
-0.01090827195
-0.01415700752
-0.01591833497
-0.01138445373
-0.01137396181
-0.01091687966
-0.021759644
-0.01885537283
-0.02371477808
-0.02182721298
-0.02032968651
-0.01890328141
-0.01493855708
-0.01115801905
-0.01616728155
-0.01499553145
-0.01101700093
-0.01105957935
-0.01650725905
-0.01895779488
-0.02506456251
-0.0123255251
-0.03749233595
-0.0298940293
-0.04738873173
-0.03881831847
-0.04818787828
-0.03757820577
-0.03017114816
-0.03190812224
-0.03694991205
-0.05150809515
-0.05823940146
-0.04455944597
-0.05134356407
-0.04468690741
-0.04931133198
-0.04337914956
-0.04288274081
-0.04915238121
-0.04300677863
-0.05988346594
-0.04491621373
-0.05907020661
-0.05120496783
-0.05144427891
-0.05378463701
-0.0493306904
-0.05372373872
-0.05130729741
-0.04924014261
-0.05309711894
-0.05476002071
-0.05597022415
-0.05824895547
-0.05302736466
-0.05599478458
-0.05482641424
-0.05113183165
-0.05137885399
-0.05361737842
-0.04911310644
-0.05106370586
-0.05364984373
-0.04917636017
-0.0453915454
-0.04924819362
-0.04735878039
-0.04723725373
-0.04717603637
-0.04727839159
-0.04546327295
-0.04353952282
-0.04178318341
-0.04516001143
-0.0434138033
-0.04349105506
-0.04519502665
-0.04182790864
-0.04533974799
-0.04918845952
-0.04708610252
-0.04716255356
-0.0452867857
-0.04712147876
-0.04722085494
-0.05639636866
-0.05595792262
-0.05987269919
-0.06056450649
-0.05602888286
-0.05631559806
-0.06052367887
-0.05598888877
-0.05899357434
-0.06026309798
-0.05453290439
-0.05589146542
-0.06020317647
-0.05465377771
-0.04298284018
-0.03459869686
-0.04059362915
-0.03754833579
-0.03455231944
-0.04978490277
-0.05086746431
-0.04744136685
-0.046942236
-0.04974615058
-0.05090708262
-0.04698996665
-0.04032799002
-0.04007484947
-0.0418542164
-0.04187908161
-0.03885210619
-0.04011007376
-0.04035116769
-0.05168007031
-0.05172512141
-0.04824550206
-0.04751325293
-0.04757663212
-0.05176775638
-0.05163284851
-0.04151001078
-0.03732428887
-0.04279855396
-0.03739000408
-0.03763956747
-0.0415788024
-0.03394172587
-0.0392588093
-0.03545884308
-0.03552670985
-0.03932667229
-0.04671202619
-0.04824153792
-0.04554365072
-0.04460156468
-0.04820459889
-0.04674594701
-0.04558878989
-0.04831874327
-0.04686697521
-0.04567480066
-0.04465170597
-0.04837335012
-0.04681664398
-0.04564046875
-0.04170838968
-0.04503768196
-0.04347438662
-0.04350209465
-0.04292270072
-0.04506864336
-0.04174561953
-0.04356322227
-0.04518154704
-0.04297078509
-0.04182932678
-0.04513434206
-0.04360761326
-0.04179245041
-0.05117897552
-0.04699275273
-0.04498782788
-0.04957667898
-0.04706073198
-0.0511205873
-0.04965246738
-0.02370280036
-0.01909769743
-0.01406628696
-0.01744034756
-0.0238617208
-0.01729559335
-0.01416612138
-0.02089894919
-0.02140538349
-0.02128110902
-0.02566673135
-0.02519558617
-0.02103304205
-0.02581116608
-0.005883087277
-0.0214403534
-0.04308487227
-0.05740891975
-0.008732138664
-0.04921165285
-0.05731783301
-0.0552607525
-0.05239502143
-0.04917776233
-0.05515551491
-0.05251648014
-0.03068074238
-0.036276752
-0.02388792963
-0.02390612145
-0.03064738264
-0.04400007401
-0.0393055395
-0.04316122052
-0.04747210813
-0.03939021181
-0.04391823301
-0.04756568771
-0.01490231154
-0.01500618282
-0.00525520857
-0.005023515285
-0.008567999137
-0.008742362776
-0.002060863078
-0.003715423881
-0.006549077969
-0.02804695228
-0.02155605027
-0.02791306222
-0.02158612379
-0.003427418008
-0.009521175423
-0.01759716645
-0.01110941091
-0.01079434547
-0.01779855598
-0.003331913027
0.01504749719
0.01174373221
-0.01677322954
-0.01063469882
-0.00947916903
-0.01459068561
-0.01041449575
-0.01698644361
-0.01458626245
-0.0003125082351
-0.0003235531342
0.0033849014
0.003606944182
0.007178984946
0.005922105416
0.01462605598
0.01641639731
0.005871168936
0.0165095686
0.008027344807
-0.003856044109
-0.002651245914
0.002320739302
0.005432018881
-0.002344969221
-0.003308054626
-0.002313554518
0.003507798784
0.001778654633
0.001765296873
0.003591144444
0.007603673865
0.005950385352
0.01168277996
0.01330096862
0.005918427558
0.01336994712
0.007686767536
-0.005348619256
-0.003352456781
-0.009435616075
-0.01730737826
-0.01067103119
-0.01066424255
-0.01747510397
-0.003318086093
0.01537344812
0.01176922648
-0.01652899284
-0.01029326541
-0.009349570536
-0.01455995946
-0.01027012878
-0.01441418047
-0.01676396828
-0.02800295159
-0.02161409248
-0.02154082424
-0.0281737612
-0.0002991133705
-0.0004318688431
0.003402096053
0.003565042562
0.007646100675
0.006000790851
0.01472802507
0.01643229563
0.005880562068
0.01651888534
0.008074431951
-0.004857265156
-0.003702849051
-0.002607685358
0.00236403891
0.005462521255
-0.00232462629
-0.003282137579
-0.002344985345
0.003528603523
0.001779716763
0.001803499623
0.003547027787
0.007719152071
0.005966925914
0.01178726773
0.01329154309
0.005983790859
0.01342046752
0.00767399476
-0.01488080609
-0.02892507505
-0.02572953037
-0.008740310219
-0.01033151386
-0.02653003808
-0.02267531211
-0.02354282334
-0.01774505682
-0.03643663807
-0.03130446122
-0.03177421264
-0.02884560456
-0.03549692503
-0.03114100319
-0.03342435061
-0.03700782295
-0.03320979876
-0.03289095646
-0.03308571117
-0.02516302932
-0.02968506115
-0.02206788587
-0.02564542819
-0.02950837787
-0.02520675585
-0.02199615028
-0.02696887916
-0.03377101442
-0.03350272104
-0.02681559319
-0.03633718356
-0.03353519183
-0.03564030653
-0.03488572074
-0.03406342904
-0.03478111676
-0.03401339332
-0.03367385409
-0.03406817049
-0.03335169043
-0.03397884572
-0.03694999378
-0.03536766934
-0.03533681551
-0.03382026189
-0.03326510527
-0.03386795144
-0.03609146944
-0.03328634801
-0.03904665373
-0.03355246886
-0.03893945702
-0.03359053331
-0.03609289483
-0.02947451047
-0.02884018227
-0.02736949814
-0.02681302116
-0.0287722286
-0.02915861105
-0.02736055801
-0.03106358414
-0.03372977276
-0.02877561824
-0.02922191583
-0.03105361714
-0.03100473248
-0.02798635278
-0.03364894615
-0.02847038248
-0.03088557547
-0.02990513245
-0.0266410292
-0.02888590932
-0.0275050106
-0.02876280974
-0.02747363704
-0.0297571458
-0.02972639644
-0.0252805559
-0.02491515934
-0.03383590648
-0.02692192731
-0.02901586165
-0.0266368998
-0.03647485791
-0.03134439631
-0.0318480398
-0.03558149396
-0.03346161565
-0.03704454232
-0.0329291419
-0.03313017149
-0.02271189643
-0.02489323876
-0.02860168107
-0.02874687909
-0.03117713316
-0.03383184444
-0.02880228864
-0.03115008265
-0.02933031495
-0.03006138565
-0.02679801359
-0.02899367413
-0.02765194712
-0.02998185591
-0.02893610109
-0.02759982363
-0.03649067112
-0.03368607833
-0.03579272482
-0.03493623807
-0.03411830737
-0.03491256529
-0.03415601935
-0.03371685514
-0.03349655572
-0.0340768259
-0.03413681961
-0.03709671771
-0.03540233548
-0.03547806171
-0.03620858759
-0.03340960818
-0.03903610374
-0.03360657514
-0.03909228801
-0.03370161748
-0.03614097766
-0.02908158176
-0.026470867
-0.02902030472
-0.02676621246
-0.02462877993
-0.02454585333
-0.02685011531
-0.03171013894
-0.02944046971
-0.031608791
-0.03014012534
-0.03296971698
-0.03121808357
-0.0328359328
-0.03006842096
-0.03171811139
-0.03159146993
-0.03280658839
-0.03118652412
-0.02999574021
-0.03283967597
-0.03157858652
-0.03002159201
-0.03554534672
-0.03420788497
-0.03375023433
-0.03287649133
-0.03419147832
-0.03374663737
-0.03552555827
-0.02542613204
-0.0269955787
-0.02514653836
-0.02351937671
-0.02694789635
-0.02355588459
-0.02534559297
-0.02716057127
-0.02860766064
-0.02966031109
-0.02737642071
-0.02855509676
-0.02737794037
-0.02721116935
-0.0270612317
-0.02711668984
-0.02957899965
-0.02854564352
-0.02854180311
-0.02722603886
-0.02695801291
-0.02551757599
-0.02513119183
-0.02701763843
-0.02366037847
-0.02691472834
-0.02361522619
-0.02556529695
-0.02864427464
-0.02742168226
-0.02724396938
-0.02730046771
-0.02977462231
-0.02749190592
-0.02871213574
-0.02709035089
-0.02369447989
-0.0255986366
-0.02566127611
-0.02527090407
-0.02706095278
-0.02376209566
-0.0291872044
-0.03182339905
-0.03017718187
-0.03300531499
-0.0317562765
-0.03135564286
-0.03023279668
-0.03176733323
-0.03297421809
-0.03424921085
-0.03379495453
-0.03561630356
-0.03563051486
-0.03297546349
-0.03429359214
-0.03382381364
-0.02102097632
-0.01971929346
-0.01828815464
-0.02274116594
-0.02108742739
-0.01976516594
-0.01834168654
-0.0258229624
-0.01120646023
-0.02364755734
-0.01611561317
-0.02216102244
-0.01750821652
-0.01242101494
-0.02017611151
-0.02348293458
-0.02011755995
-0.01870409699
-0.02167709623
-0.01876682358
-0.02159687592
-0.02027400613
-0.01112243597
-0.01625132387
-0.03712843881
-0.02670373457
-0.03425670561
-0.03628476526
-0.03535243053
-0.03168809915
-0.03689325447
-0.04162964174
-0.03685747819
-0.03297304086
-0.04185243548
-0.03697598711
-0.04169477927
-0.03275038451
-0.03878080654
-0.02998789671
-0.03172478441
-0.03684874363
-0.0489028457
-0.03854135749
-0.04312893822
-0.04260039702
-0.04897088842
-0.0433484779
-0.04283842617
-0.03862518606
-0.043197101
-0.04911145611
-0.04268568753
-0.0363082054
-0.03352541712
-0.03537700713
-0.0347315111
-0.03392991431
-0.03476028042
-0.03395343179
-0.03352276817
-0.03800262169
-0.04034223267
-0.04158134125
-0.0398619773
-0.04029213525
-0.03805634188
-0.03980560917
-0.03688875341
-0.03519691448
-0.03524540193
-0.03601634148
-0.03883839092
-0.03304080199
-0.03343391458
-0.03889606261
-0.03350305436
-0.03595652128
-0.03823552714
-0.0400856584
-0.04178160064
-0.04056500346
-0.0405006556
-0.04004236571
-0.0382717788
-0.03817705871
-0.04040458536
-0.04172926894
-0.03993163377
-0.04043556613
-0.03812070108
-0.03998603185
-0.04497836286
-0.04683608433
-0.04691186504
-0.04884832016
-0.04678157361
-0.04503292194
-0.04685984597
-0.04307625914
-0.04152651074
-0.04146962575
-0.04317843635
-0.04490967734
-0.04485586247
-0.04323478946
-0.04514623714
-0.04690510044
-0.04898217783
-0.04697008257
-0.04692242432
-0.04701666012
-0.0450956079
-0.04174789756
-0.04327674609
-0.04170532181
-0.04340893495
-0.04512775932
-0.04505150581
-0.04345455243
-0.04322480486
-0.04159389536
-0.04164955353
-0.0433537545
-0.04497867398
-0.04500203269
-0.04330035029
-0.04520084486
-0.04902830298
-0.04705021106
-0.04712132201
-0.04697036559
-0.04707009728
-0.04524898246
-0.01208641478
-0.01208243485
-0.04733086382
-0.01880574311
-0.04812543112
-0.0371080159
-0.02131238743
-0.02972777512
-0.05116074085
-0.05816144453
-0.04451371785
-0.04718410864
-0.05129492162
-0.05805129758
-0.04436458852
-0.05979731223
-0.04484516176
-0.04797510241
-0.05971038595
-0.05896096761
-0.04301667981
-0.05731035326
-0.05090269138
-0.05116409907
-0.05343229666
-0.04891851999
-0.05342833081
-0.04895985363
-0.05086495167
-0.05290345036
-0.05468487059
-0.05590453593
-0.05807044363
-0.05581364307
-0.05296961703
-0.0546065619
-0.05095518137
-0.05120865775
-0.05356064509
-0.04906695937
-0.05347251947
-0.04901207072
-0.05101361134
-0.05285167415
-0.05578199617
-0.05802977795
-0.05454377339
-0.0557701999
-0.05282078851
-0.05455951188
-0.05614409847
-0.0558721158
-0.05971967996
-0.0604609004
-0.05579048665
-0.06038667146
-0.05621762013
-0.05610405154
-0.06039314055
-0.05967728217
-0.05573865917
-0.05574720418
-0.06035161898
-0.05609313496
-0.05572513434
-0.05887170818
-0.06014212456
-0.05442278443
-0.06006705586
-0.05440510715
-0.05577894789
-0.04904450693
-0.05718224557
-0.05517536766
-0.05228704329
-0.0549952662
-0.05229729435
-0.04906909188
-0.03709511758
-0.03869454811
-0.03580742984
-0.03709701085
-0.03578262841
-0.03866889431
-0.03712192196
-0.03403967583
-0.03417861265
-0.03143025973
-0.03163831997
-0.03134176509
-0.02935403315
-0.03684128276
-0.0368430918
-0.03845388117
-0.03557537149
-0.03552921821
-0.03688544958
-0.03840465398
-0.03702736955
-0.03703368693
-0.03854426523
-0.0356589163
-0.03572138238
-0.03697119029
-0.03859738964
-0.0354325488
-0.03361149182
-0.03281955019
-0.03406834786
-0.03412980324
-0.03366821856
-0.0354234349
-0.04028128133
-0.03874621279
-0.04025319826
-0.04177477471
-0.04003508585
-0.04180455276
-0.03999817714
-0.03661558038
-0.03891958773
-0.03676534516
-0.03383020102
-0.03373824494
-0.03524958258
-0.03915652293
-0.0390715141
-0.03534300562
-0.03848885614
-0.04003702887
-0.03998683578
-0.04150852858
-0.03979348282
-0.04155993382
-0.03974075104
-0.04312868072
-0.04474412488
-0.04142588608
-0.04254907539
-0.04317985294
-0.04469375648
-0.0413731792
-0.04339060145
-0.04166761855
-0.04497967047
-0.04280003989
-0.04494725775
-0.04342162548
-0.04163008192
-0.03868127187
-0.04012816037
-0.04018346954
-0.04170487595
-0.03987823863
-0.04165175164
-0.03993239232
-0.04332162316
-0.0448330883
-0.04273539523
-0.04151171963
-0.0448800263
-0.04327086551
-0.04156424198
-0.04963170074
-0.05078339868
-0.04689027045
-0.04728444069
-0.04967187586
-0.05073237452
-0.04684944104
-0.05145413583
-0.05163030704
-0.04744472346
-0.04807195669
-0.05156455086
-0.05153046445
-0.04737991252
-0.03744790101
-0.04140512219
-0.04260395407
-0.04132042388
-0.0372022666
-0.037355156
-0.0426878952
-0.03735280177
-0.04277690015
-0.0372601458
-0.04286224544
-0.04045676606
-0.03439590708
-0.03609197368
-0.02361948806
-0.03045767683
-0.04664858967
-0.04447536214
-0.04661490604
-0.04810075726
-0.04549398289
-0.04813614329
-0.04545473835
-0.05063719922
-0.04674533967
-0.04952947082
-0.04956722064
-0.04722451073
-0.05066863194
-0.046788528
-0.04650661503
-0.04441190405
-0.04534799383
-0.04654964638
-0.04799572114
-0.04803632381
-0.0453930775
-0.05092898418
-0.04692139461
-0.04947032115
-0.04476207038
-0.04940069519
-0.051011371
-0.04684618744
-0.05147900758
-0.04728959302
-0.05137558752
-0.05139352575
-0.04801179261
-0.05150229377
-0.04732040265
-0.04380921384
-0.03924334674
-0.04737688036
-0.04293138268
-0.04733476966
-0.04384367286
-0.03914835065
-0.02259712863
-0.01957138603
-0.01940987734
-0.01721899177
-0.02489371666
-0.02074926864
-0.02112956349
-0.02549516678
-0.02353356432
-0.01390088365
-0.01715891782
-0.01114122464
-0.0157061239
-0.01166323788
-0.01103919347
-0.02492637542
-0.01742364747
-0.01233940221
-0.02267582254
-0.02483419726
-0.02885585494
-0.02876342704
-0.0226492398
-0.02099305641
-0.01972614336
-0.0209584618
-0.01971420316
-0.01823698406
-0.01825898651
-0.0160327102
-0.01099931267
-0.01597776666
-0.01479859104
-0.01096877949
-0.01487354561
-0.01090260048
-0.008896950133
-0.007674446561
-0.00752809618
-0.01148342066
-0.01168488522
-0.009044958515
-0.009218406771
-0.01230807499
-0.009163315559
-0.009340169782
-0.009232992404
-0.00944443668
-0.007297403263
-0.007146302724
-0.01396511313
-0.01078618122
-0.01124453551
-0.005627109366
-0.008837193456
0.001360660552
-0.00214532844
-0.008665023883
-0.003795814982
-0.04998283914
-0.05116408892
-0.05340113372
-0.05025538929
-0.05140079291
-0.05424944562
-0.04552938322
-0.04664294862
-0.0504746
-0.04550900119
-0.0460261993
-0.05100090246
-0.04958252362
-0.05069902447
-0.05339645338
-0.04993875911
-0.05137731968
-0.05358987159
-0.04557898908
-0.04631477183
-0.05111556196
-0.04219194511
-0.04607950084
-0.05393144544
-0.04661116129
-0.04748474358
-0.05100098544
-0.04145362652
-0.04518959501
-0.05616169589
-0.02289204992
-0.02885139791
-0.03862901145
-0.02410626196
-0.03079464773
-0.03836805931
-0.05015946332
-0.05117857322
-0.0538145879
-0.04413522984
-0.0446456073
-0.04984922661
-0.0496450634
-0.05081299235
-0.05334729566
-0.04541203828
-0.04597378291
-0.05014594784
-0.04033105426
-0.04466481856
-0.05809590247
0.06129587858
0.05719870795
0.0496201589
-0.05706867107
-0.05801362943
-0.05990156811
-0.05753818525
-0.0581846582
-0.06056131749
-0.05804668322
-0.0588499272
-0.06133743533
-0.05775824939
-0.05872929685
-0.06071147027
-0.04244798927
-0.04581891135
-0.05593306724
-0.02431119761
-0.02991866958
-0.03537020764
-0.02280534882
-0.02795376169
-0.03550958092
-0.04291338612
-0.04570695149
-0.05345382419
-0.05720038158
-0.0581084184
-0.06055065594
-0.05755325517
-0.05818345675
-0.06022530862
-0.04268352095
-0.04623938409
-0.05496244683
0.1092124969
0.1173966211
0.1235963356
0.0632487035
0.05840333163
0.05201866467
0.1096272317
0.1174692034
0.122993996
-0.03719997922
-0.03731129189
-0.03731948461
-0.03627146917
-0.03616441203
-0.03615478384
-0.03314413516
-0.03315709604
-0.03316823508
-0.03715161773
-0.03725441793
-0.03726295386
-0.03622634533
-0.03611692115
-0.03610822405
-0.03519741267
-0.0352073757
-0.03521743271
-0.03310896045
-0.03312036431
-0.03313027116
-0.03417017205
-0.03420766365
-0.03421463588
0.004676356937
-0.01908421668
-0.01828410465
-0.01927447228
-0.01843947956
0.004679543907
-0.03701078962
-0.03710574458
-0.03711302546
-0.03307096511
-0.03307571008
-0.03308503823
-0.03607517228
-0.03596759493
-0.03596128007
-0.03283742855
-0.03284882976
-0.03286330969
-0.03366581713
-0.03357001353
-0.03352781471
-0.03342993757
-0.03334085881
-0.03329718748
-0.03694896091
-0.03706105794
-0.03706915847
-0.03399332555
-0.03402340008
-0.03402965525
-0.03296978124
-0.03298488129
-0.03299649793
-0.03601302683
-0.03590819103
-0.03589877787
-0.03499537407
-0.03500935111
-0.03501925703
-0.03374250339
-0.03377577024
-0.03378587895
-0.03288003592
-0.03289643114
-0.03291331786
-0.02863523318
-0.02859276311
-0.02862649984
-0.02717961699
-0.02725841756
-0.02733893123
-0.02840197386
-0.02837664982
-0.02842716768
-0.02712452146
-0.0271923902
-0.02726955505
-0.03362500394
-0.03352466099
-0.03347513829
-0.03155018047
-0.03151451183
-0.0314884812
-0.0335324549
-0.03344282443
-0.0334019078
-0.03372632643
-0.03363507254
-0.03359342273
-0.03704804824
-0.03714306972
-0.03715112724
-0.03311099676
-0.03312216657
-0.03313607786
-0.03610603764
-0.03600051012
-0.03599516193
-0.0316603528
-0.03161730836
-0.03159704254
-0.03372875207
-0.03362907475
-0.03358124456
-0.03709225109
-0.03720138382
-0.03720968188
-0.03312569553
-0.03313830425
-0.03314915869
-0.03399460029
-0.03402804487
-0.03403635548
-0.03615534463
-0.03605134104
-0.0360430732
-0.03502497195
-0.03504078448
-0.0350514438
-0.03685912777
-0.03695515063
-0.03696358656
-0.03592473742
-0.03581424071
-0.03580715332
-0.03689830921
-0.03699992016
-0.03700902901
-0.03596099881
-0.03585268067
-0.03584556339
-0.03482651545
-0.0348417527
-0.0348521842
-0.04385124719
-0.04391770672
-0.04392241868
-0.04199134924
-0.04202758979
-0.04203034071
-0.0421461083
-0.04218554903
-0.04218820244
-0.04577867826
-0.04587009177
-0.04587674054
-0.04380140058
-0.04386968884
-0.0438749611
-0.04572825665
-0.04582195429
-0.04582936737
-0.03943989124
-0.03947134291
-0.03945942366
-0.03937502921
-0.03940931085
-0.0393987888
-0.04035363986
-0.04036192612
-0.04036899971
-0.04204575261
-0.04208588827
-0.0420887196
-0.04040784404
-0.04041894821
-0.04042614442
-0.04051521732
-0.04052549177
-0.0405322311
-0.04209537619
-0.04213611603
-0.04213925758
-0.04046549084
-0.04047655028
-0.04048324159
-0.03514122338
-0.03515535602
-0.03516539264
-0.03412486281
-0.03416177922
-0.03416793604
-0.05010678532
-0.05027189966
-0.05028878196
-0.04369781289
-0.04376053749
-0.04376504413
-0.04994899093
-0.05010986617
-0.05012613645
-0.05253602967
-0.05277102927
-0.05279829289
-0.06055004396
-0.06123495019
-0.06133553739
-0.05237868381
-0.05260755662
-0.05263412693
-0.06274196975
-0.0636301851
-0.06381758328
-0.06290847413
-0.06404247541
-0.06474537085
-0.05005456914
-0.05022303587
-0.05024093297
-0.04785570306
-0.04797659117
-0.04798699842
-0.04780444128
-0.04792821938
-0.04793954753
-0.0456244343
-0.04571223613
-0.04571854292
-0.04374985434
-0.04381761715
-0.04382280988
-0.04567732613
-0.04577112238
-0.04577847232
-0.05000304426
-0.05017436279
-0.05019278602
-0.04769933458
-0.04781655738
-0.0478264731
-0.04775282625
-0.04787768304
-0.04788916594
-0.05248337011
-0.0527217763
-0.05274995685
-0.05511206327
-0.05545602646
-0.05550096984
-0.05506116919
-0.05540698553
-0.05545243246
-0.05770710218
-0.0581932105
-0.05826438893
-0.06058854585
-0.06129903395
-0.0614071828
-0.05775611195
-0.05826772519
-0.05834475657
-0.05243247288
-0.05267657104
-0.05270609513
-0.05495939028
-0.05529447033
-0.05533863314
-0.05501182257
-0.05536825145
-0.05541641608
-0.06274563663
-0.06364927116
-0.06385710558
-0.0637539451
-0.06476164956
-0.06506853209
-0.06370385398
-0.0647062754
-0.06505523456
-0.06284369629
-0.06390413844
-0.06476049497
-0.06376736948
-0.06486067174
-0.06532253856
-0.06368515666
-0.06474465054
-0.06529426384
-0.06171095149
-0.06281854103
-0.06382736637
-0.06173900805
-0.06274023388
-0.0639751061
-0.06024250439
-0.06125697118
-0.06258462258
-0.06049277683
-0.06135208914
-0.06302472987
-0.02899148879
-0.02903961004
-0.02900642541
-0.01938737731
-0.01853905329
-0.02849221387
-0.02854160509
-0.02844069666
-0.009560202237
-0.009225701842
0.0008742773731
0.0006956699627
-0.00913705216
-0.008819653516
-0.01953213425
-0.01869070184
0.0112120842
0.0007658116663
0.0005396121228
0.00479458512
0.004438284391
0.004495665922
0.01072724187
-0.009071298096
-0.008760688517
0.0007318232359
0.0004949551426
-0.008931087342
-0.00860373238
0.01150598432
-0.02902999607
-0.02908420622
-0.02903138609
-0.02905820483
-0.02908329365
-0.02903680159
0.0006949032946
0.0004771277208
0.0047318009
0.004446010723
0.01087096266
0.004460111924
-0.03155684352
-0.0315137442
-0.03149242613
-0.03924442971
-0.03926827328
-0.0392565873
-0.03919806283
-0.0392300912
-0.03921764947
-0.03393084063
-0.03396768699
-0.03397391872
-0.03494023346
-0.0349507599
-0.03496081459
-0.03378761037
-0.03382368742
-0.03383342821
-0.03157643002
-0.03154599226
-0.03153003377
-0.02891548926
-0.02883013899
-0.02884990773
-0.02726675492
-0.02733166959
-0.02740067924
-0.02716966393
-0.02722366291
-0.02727602593
-0.02892539914
-0.02886523213
-0.02889299021
-0.03143322174
-0.03140327
-0.03137814151
-0.03166245407
-0.03163590906
-0.03161621419
-0.02875818897
-0.02874087415
-0.02878996127
-0.02897545183
-0.02897549945
-0.02901093739
-0.02909266118
-0.02900220877
-0.02901992648
-0.0274294912
-0.02749201847
-0.02755039669
-0.02918884879
-0.02912540819
-0.02913245508
-0.02729741325
-0.02735651788
-0.02741511613
-0.0392720524
-0.0393006422
-0.03929028119
-0.03933485217
-0.0393646596
-0.03935261405
-0.03408546996
-0.03412149849
-0.03412777592
-0.03508657228
-0.0350978115
-0.03510789656
-0.04177158628
-0.04181343403
-0.04181644959
-0.04195504546
-0.04198983045
-0.04199162906
-0.04181415956
-0.04185086143
-0.04185371689
-0.04972584251
-0.04989848158
-0.04991722546
-0.04347540607
-0.04354507115
-0.04355047448
-0.04976807835
-0.04992747071
-0.04994280265
-0.04365949683
-0.04372082008
-0.04372444909
-0.04352009358
-0.04358324007
-0.04358776691
-0.0499096748
-0.0500695414
-0.0500851098
-0.0401335678
-0.04014580175
-0.04015293851
-0.04172051788
-0.04176401833
-0.04176696923
-0.04008323561
-0.04009738593
-0.0401043173
-0.03908960593
-0.03911930982
-0.0391090423
-0.0391348244
-0.03916572804
-0.03915464724
-0.0419129072
-0.04195454022
-0.0419570239
-0.04031160339
-0.04031957365
-0.04032653661
-0.04027548151
-0.04028663342
-0.04029308049
-0.04017743855
-0.04018605814
-0.04019319905
-0.04186066592
-0.0419011814
-0.04190388182
-0.04022205323
-0.04023381913
-0.04024058747
-0.03486645034
-0.03488323542
-0.0348940131
-0.0474766939
-0.04760330416
-0.04761508982
-0.04967658855
-0.04985549514
-0.049876348
-0.04742700863
-0.04755792228
-0.0475709802
-0.0434243363
-0.04349648114
-0.04350216202
-0.0454019984
-0.04549775231
-0.04550538325
-0.04535159576
-0.04545047537
-0.0454587732
-0.04751960743
-0.04763632833
-0.04764572865
-0.04981034486
-0.04998646884
-0.05000616148
-0.04756321796
-0.04769132937
-0.04770347983
-0.04361690818
-0.04368725665
-0.04369242176
-0.04558664041
-0.04567289702
-0.04567812907
-0.04554277514
-0.04564084772
-0.04564886213
-0.0435643084
-0.04363334699
-0.04363855659
-0.04544563642
-0.04553351875
-0.04553963408
-0.04549033665
-0.04558618681
-0.04559379852
-0.04986308535
-0.05004496537
-0.05006635433
-0.0476605806
-0.04777625807
-0.0477851831
-0.04761593981
-0.04774756256
-0.04776068442
-0.05219668376
-0.05242262102
-0.05244784002
-0.06052564512
-0.06122402527
-0.06132998841
-0.05233852636
-0.05256864456
-0.05259519083
-0.06036792088
-0.06104732666
-0.06114636731
-0.06167067694
-0.06273757448
-0.0639316979
-0.06272337348
-0.06362349446
-0.06382528912
-0.06257774637
-0.06346294779
-0.06364619655
-0.06283009366
-0.0639400663
-0.06477066886