/*--------------------------------*- C++ -*----------------------------------*\
| =========                 |                                                 |
| \\      /  F ield         | OpenFOAM: The Open Source CFD Toolbox           |
|  \\    /   O peration     | Version:  2406                                  |
|   \\  /    A nd           | Website:  www.openfoam.com                      |
|    \\/     M anipulation  |                                                 |
\*---------------------------------------------------------------------------*/
FoamFile
{
    version     2.0;
    format      ascii;
    arch        "LSB;label=32;scalar=64";
    class       volScalarField;
    location    "500";
    object      p;
}
// * * * * * * * * * * * * * * * * * * * * * * * * * * * * * * * * * * * * * //

dimensions      [0 2 -2 0 0 0 0];

internalField   nonuniform List<scalar> 
124023
(
0.0002457434996
-0.003249992454
0.0001627391566
-0.00060349197
-0.001474162451
-0.001197281917
0.001094417115
0.002575576471
0.0006577989079
0.002684651486
0.002574714144
0.001074850257
0.001494445062
0.001595792246
-0.0005873039112
-0.002178211728
-0.005156315326
-0.005333051057
-0.004931693246
-0.004812520675
-0.00232248097
-0.002806960603
-0.002917781984
-0.02855462941
-0.03052410473
-0.01897012926
0.01486068065
-0.04627807457
-0.04608635607
-0.04207964671
-0.0307160522
-0.04219056122
0.01627052735
-0.01649566771
0.006379180906
0.0007437898158
-0.04182249003
-0.04161545632
0.02309168153
0.02278867107
-0.03328641155
-0.01909662261
-0.03287785131
0.01599970755
0.0008967782536
0.0158404053
0.0008692265349
0.03374095739
0.03227804108
0.03226548075
0.03369997542
-0.04588581187
-0.04559082623
-0.0442121005
-0.03740096505
-0.04259633871
-0.05086331353
-0.03738516008
-0.04438596432
-0.05083818435
-0.04427543825
-0.05078777831
-0.04262356807
-0.03749130632
-0.03748256299
-0.05083287809
-0.04444618359
-0.04197849658
-0.03430712428
-0.03454587658
-0.04138288364
-0.03439053377
-0.03410475576
-0.009258387311
-0.01130324348
0.03160337739
0.02335182536
-0.01032540334
-0.01104954828
0.03195909048
-0.009648720091
-0.01084674442
0.0234352301
0.03198355848
-0.009020191568
-0.0109436825
0.03208713399
-0.02869855593
-0.03970853494
-0.03397149707
-0.03567853691
-0.03060667467
-0.03394287884
-0.0357637431
-0.03972442167
0.02221093346
0.01186738619
0.02261797232
0.01485456824
0.02260248326
0.02214357167
0.01197164689
-0.03978888542
-0.03068851524
-0.03413479461
-0.03586873448
-0.034030159
-0.03582536581
-0.03990660478
-0.02885822876
-0.03343449683
-0.02892432361
-0.01960435732
-0.02349649007
-0.01955034965
-0.02361243743
-0.0331832953
-0.02879096128
-0.02892932741
-0.0195935886
-0.02323004595
-0.02336588046
-0.01949270674
-0.004389911286
-0.005261010449
0.01604049553
0.008840053001
-0.005400692591
-0.004287253191
0.008830336621
-0.004440660427
-0.005333468723
0.01606630006
0.008731017773
-0.004425486201
-0.005448603437
0.008823589747
0.04390226823
0.04734084722
0.03389799443
0.03382065481
0.04737954015
0.03390524438
0.04392401382
0.04390849208
0.03383195658
0.04737026816
0.03388177472
0.04396272842
0.04744193652
0.03389660281
0.009236209181
0.0046253443
-0.01673128141
-0.002145750438
-0.002411727637
-0.03040743556
-0.01891216324
-0.04657614109
-0.04179241716
-0.04204904776
-0.03299599385
-0.04548391165
-0.04422241715
-0.03726188321
-0.04237725294
-0.05078140491
-0.03742204809
-0.0507226287
-0.04429332671
-0.04144181965
-0.03494996102
-0.03460635059
-0.03960845844
-0.03396679387
-0.0356115057
-0.0302612458
-0.0338229225
-0.03969552893
-0.03548207393
-0.02826939923
-0.02870616929
-0.03331997016
-0.02896124213
-0.01966763967
-0.02353756675
-0.02375504798
-0.0195102186
0.01488095625
0.03919802703
0.008731720559
0.005471831203
0.005515140961
0.004214326298
0.01490298233
0.02343502113
0.01232710623
0.08008446593
0.003016097395
0.06652492488
0.06504149297
0.05389344635
0.05958446861
0.08033360436
0.06496817817
0.05967184426
0.05397184347
0.06480317187
0.005282147262
0.005721655824
0.004235472325
0.0122913984
0.0006578773903
0.008576254409
0.004556932986
0.005333899438
0.008621306047
0.009166392218
-0.01509875534
-0.02274586793
-0.03709745959
-0.02684451504
-0.03427314909
-0.02280626423
-0.03878200695
-0.04351042037
-0.03655111881
-0.03565002065
-0.02901167301
-0.03139587403
-0.03179685048
-0.03712751153
-0.03346802415
-0.03328173843
-0.04184331164
-0.03708993642
-0.04197782965
-0.03287169055
-0.0435960644
-0.0453310008
-0.0434449304
-0.04186551648
-0.04525990605
-0.04364272843
-0.04183052764
-0.03646450407
-0.03361527559
-0.03576354998
-0.034934486
-0.03410392225
-0.03369030891
-0.03488779171
-0.03408409557
-0.03708211213
-0.035487229
-0.03546283055
-0.03339646744
-0.03412019756
-0.03408217874
-0.03614326118
-0.03342253209
-0.0390917279
-0.03362257729
-0.03902942996
-0.03365341471
-0.03613831231
-0.03826814859
-0.04006909288
-0.04054977244
-0.04187778521
-0.04009304183
-0.04057005232
-0.03825026879
-0.03828856685
-0.04066983741
-0.04191709293
-0.04014733387
-0.04012147339
-0.04061019882
-0.03830427535
-0.03691574444
-0.03394035867
-0.03867552598
-0.03576390488
-0.03708988738
-0.03706934358
-0.03708893624
-0.03575536582
-0.03865795296
-0.02468191132
-0.02689523331
-0.02664498312
-0.02474905462
-0.02916387189
-0.02695767226
-0.03147640968
-0.02948426499
-0.03429501927
-0.03152869981
-0.03176598819
-0.02954224994
-0.04190127529
-0.03877622929
-0.04009928463
-0.04031684187
-0.04192073303
-0.04008422909
-0.04030969935
-0.03025520915
-0.03131947574
-0.03019461068
-0.03171886862
-0.03302526893
-0.03179134094
-0.03294554301
-0.03707675055
-0.03708977724
-0.03867496861
-0.03574988062
-0.03575203188
-0.03867580249
-0.03707018759
-0.03552485736
-0.03371445732
-0.03287164215
-0.03416470509
-0.03416608043
-0.03373571713
-0.03551703967
-0.01583546002
-0.01177526256
-0.01786633385
-0.004961936347
-0.01049176278
-0.00499028277
3.917881788e-06
-0.005462545096
-0.01971353944
-0.0196535794
-0.01954147685
-0.01734330126
-0.01743768992
-0.02286318169
-0.01981258456
-0.01407663238
-0.01089891485
-0.01414434577
-0.01590441198
-0.01137451521
-0.01136566368
-0.01090608977
-0.02173844358
-0.01884624606
-0.0236822811
-0.02180504202
-0.02032259138
-0.01889458537
-0.0149406538
-0.0111733979
-0.01617840062
-0.0149977038
-0.01102763507
-0.01106873521
-0.01649392042
-0.01894272813
-0.02504555269
-0.01231270315
-0.03748700904
-0.02987967577
-0.04739264709
-0.03876539111
-0.04817816149
-0.03757256489
-0.030141551
-0.03188744259
-0.0368846333
-0.05158884235
-0.05826211674
-0.04458732663
-0.0513798474
-0.04480441509
-0.04939353138
-0.04335785057
-0.04289690278
-0.04918086885
-0.0430584771
-0.05989781025
-0.04490816087
-0.05905588022
-0.05133422391
-0.05150464888
-0.05383694402
-0.04945622817
-0.05375747561
-0.05141671666
-0.04937694664
-0.05317637993
-0.05476463378
-0.05600119349
-0.05824591051
-0.05304824576
-0.05602605012
-0.05486714359
-0.05123233964
-0.05144406447
-0.05365386404
-0.04914897857
-0.05109706835
-0.05370606254
-0.04927505543
-0.04545706338
-0.04931052515
-0.04746139926
-0.04729783807
-0.04721973684
-0.04739065956
-0.04551599452
-0.04353709456
-0.04174636716
-0.04515593701
-0.0433975041
-0.04347502735
-0.04520524724
-0.04178838352
-0.04537883261
-0.04924598821
-0.04709983876
-0.04718884282
-0.04529379776
-0.04715817284
-0.04729694354
-0.05636249688
-0.05595241926
-0.05983925404
-0.06056872134
-0.05602762367
-0.05631021124
-0.06046877844
-0.05593070821
-0.05893740346
-0.06025937701
-0.05453937052
-0.05589329752
-0.06014101267
-0.05457927124
-0.04298976354
-0.03459545828
-0.04058606662
-0.03755387334
-0.03454168922
-0.0498879806
-0.05086032057
-0.04750855454
-0.04696233924
-0.04975977724
-0.05098429893
-0.04707105169
-0.04027786533
-0.04004371973
-0.04182718298
-0.04184461751
-0.03876440637
-0.04005728016
-0.04027611364
-0.05169523185
-0.05170344021
-0.04829126259
-0.04749794408
-0.04759913652
-0.05180828762
-0.05160989953
-0.04151821038
-0.03730703908
-0.04281704759
-0.03736936215
-0.03764100327
-0.04160777322
-0.0338878914
-0.03923301858
-0.03542416572
-0.03548052787
-0.03928924255
-0.04674414552
-0.04835046448
-0.04557193466
-0.04466007614
-0.04823329788
-0.04683920161
-0.04566682134
-0.04850722291
-0.04703970937
-0.0458407567
-0.04475281787
-0.04857782144
-0.0469777195
-0.0457784659
-0.04170138123
-0.04505823157
-0.0434731773
-0.04351477449
-0.04294958034
-0.0451271877
-0.04173120669
-0.04359921336
-0.04528900772
-0.04301895617
-0.04180396421
-0.04524015001
-0.04363276736
-0.04177840453
-0.05116690626
-0.04697799287
-0.04497594316
-0.04957446318
-0.0470636281
-0.05110680281
-0.04962132246
-0.02368679634
-0.01908104933
-0.01405304912
-0.01742507868
-0.02384409004
-0.01728207758
-0.01415184464
-0.02088349358
-0.02138847795
-0.02126595803
-0.02564844751
-0.02517494144
-0.02101588927
-0.02579138654
-0.005875613903
-0.02142756623
-0.0430773968
-0.05738712289
-0.008720830494
-0.0491023127
-0.05727185885
-0.0552413468
-0.05239331045
-0.04915624935
-0.0551171963
-0.05242492737
-0.0306702465
-0.03626401644
-0.02387797929
-0.02389598659
-0.0306348935
-0.0439263943
-0.03928976834
-0.04313866379
-0.04746871175
-0.03935533267
-0.04389740918
-0.04751457217
-0.01489502684
-0.01499711801
-0.005247187095
-0.005017242229
-0.008556705991
-0.008731107756
-0.002052209529
-0.003706115202
-0.00654212446
-0.02810661769
-0.02158141857
-0.02796656479
-0.02162957135
-0.003438234996
-0.0095665538
-0.01767676867
-0.01118152673
-0.01084989624
-0.01790747948
-0.003354254946
0.0150485255
0.01175893252
-0.01684581853
-0.01069732981
-0.009526309487
-0.01463978133
-0.01046760408
-0.01707478182
-0.01463671987
-0.0003406079217
-0.0003484371389
0.003400134937
0.003585519303
0.007220270623
0.005916068055
0.01467570896
0.01640603345
0.00591770986
0.01650409886
0.007998966744
-0.003861677074
-0.002666494377
0.002320416535
0.00543684228
-0.002371067757
-0.003333537947
-0.002336249804
0.003501233633
0.001767233423
0.001754222754
0.003575828329
0.007603352466
0.005949671396
0.01170390303
0.01331096345
0.005920315006
0.0133716706
0.007673377254
-0.005345232074
-0.00336553485
-0.009485159131
-0.01750174034
-0.01074192741
-0.01076969079
-0.0176082249
-0.003342376421
0.01502818834
0.01177400353
-0.01671027282
-0.01034582086
-0.009405352354
-0.01463033041
-0.01035801019
-0.0145101753
-0.01686359801
-0.02806170412
-0.02164061319
-0.02157031505
-0.02820204779
-0.0003084562147
-0.0004434166325
0.003382192076
0.003531359499
0.007477512886
0.005902293819
0.01487123046
0.01628716917
0.005975478471
0.01662977648
0.007978149132
-0.004860626665
-0.003711235759
-0.002631854906
0.002361545286
0.005457534788
-0.002348392776
-0.003303458097
-0.002359518551
0.003503595613
0.00176303718
0.00178506394
0.003518667314
0.00767676868
0.005956981502
0.01179228414
0.01327869528
0.005968631577
0.01346408174
0.007635700436
-0.01487227177
-0.02888154829
-0.02570104568
-0.008734153817
-0.01032585107
-0.02649444493
-0.02265844006
-0.0235207527
-0.01773743118
-0.03638434851
-0.0312382354
-0.03172193634
-0.02881119736
-0.03543457411
-0.03110446064
-0.0333544728
-0.03694404698
-0.03317256962
-0.03283546187
-0.03306777831
-0.02515414844
-0.02963474958
-0.02205652274
-0.02562111608
-0.02947336064
-0.02518635796
-0.02198529834
-0.02695222829
-0.03369650718
-0.03346762352
-0.02677828726
-0.03628998594
-0.03348109223
-0.03559667789
-0.03477749887
-0.03400164813
-0.03473154355
-0.03396883655
-0.0335876604
-0.03400037359
-0.03329764537
-0.03392528333
-0.0368973312
-0.03530097407
-0.03528232771
-0.03378058602
-0.03322020906
-0.03382252284
-0.03605152217
-0.03324824426
-0.03900681961
-0.03351548678
-0.0388932501
-0.03355291967
-0.03605304782
-0.0294478319
-0.02882294122
-0.02734293968
-0.02679344005
-0.02873779585
-0.02916020656
-0.02733325978
-0.0309930114
-0.03367030702
-0.02878161138
-0.02916429157
-0.0309848817
-0.03094974412
-0.02794827525
-0.03359045054
-0.02840795616
-0.03085211469
-0.02983926067
-0.02660100212
-0.02883815009
-0.02747423623
-0.02870377293
-0.02742063714
-0.02972511917
-0.0296401371
-0.02525592324
-0.02492862687
-0.03370858974
-0.02689660654
-0.02895573711
-0.02658732191
-0.03640505553
-0.03124292044
-0.03176588856
-0.03569869482
-0.03337180427
-0.03698658277
-0.03285469353
-0.03324438507
-0.0227152949
-0.02493771717
-0.0286485614
-0.02879276664
-0.03109650679
-0.03376419251
-0.02864460236
-0.03104727871
-0.02927339765
-0.02999269105
-0.02681689112
-0.02889882721
-0.0276569484
-0.02988912028
-0.02891004118
-0.02759852403
-0.03644338019
-0.03361834381
-0.03551701438
-0.03483840174
-0.03405970894
-0.03484726982
-0.03405069121
-0.0336036327
-0.03342076054
-0.03401133494
-0.03406593001
-0.03703028727
-0.03535695516
-0.03539011811
-0.0361092758
-0.03320157773
-0.03899954365
-0.03357352647
-0.03902437406
-0.03360407601
-0.03609168953
-0.02903539862
-0.02644418911
-0.02898598246
-0.0267391554
-0.02459982163
-0.02452476097
-0.02681215435
-0.03165639675
-0.02939590283
-0.03155741331
-0.03009388141
-0.03287773394
-0.03116970257
-0.03278684439
-0.03002137509
-0.03165061232
-0.03154208557
-0.03276702432
-0.031137122
-0.02996192238
-0.03278842543
-0.03154212085
-0.02997587434
-0.03550055394
-0.03415181818
-0.03370115641
-0.03283027676
-0.03414615441
-0.03370348813
-0.03547509063
-0.02539850721
-0.02697837557
-0.02513057236
-0.0235117438
-0.02691858855
-0.02354029363
-0.02533046657
-0.02712085077
-0.02856961309
-0.02961003099
-0.02733822918
-0.0285127898
-0.02732787001
-0.0271768981
-0.02702487929
-0.0270862236
-0.02953236225
-0.02851262755
-0.02850496978
-0.02718363582
-0.02693394145
-0.02548658446
-0.02510350085
-0.02697513396
-0.02364932797
-0.02686938607
-0.02359746035
-0.02553966528
-0.02859442707
-0.0273483775
-0.02719729606
-0.02726795372
-0.02973613211
-0.02745635519
-0.0286705948
-0.02703443676
-0.02367868348
-0.02556243731
-0.02564295034
-0.02528098103
-0.02704299358
-0.02376471828
-0.02911709018
-0.03173502805
-0.03010764631
-0.0328813196
-0.03165978199
-0.03131985341
-0.030177102
-0.0317096987
-0.03294864538
-0.03416968085
-0.03372890015
-0.03553860953
-0.03548295303
-0.032867197
-0.03416645727
-0.03371871928
-0.02102484352
-0.01973819877
-0.01830614164
-0.02277099027
-0.02110777015
-0.01979947142
-0.01836994043
-0.02579099669
-0.01123147469
-0.02361983265
-0.01612392678
-0.02215333271
-0.01752546795
-0.01246570659
-0.02016801325
-0.02346531773
-0.02011007635
-0.01869742793
-0.02165837478
-0.01875842899
-0.02158311467
-0.02026602406
-0.01113774177
-0.01624087492
-0.03708116471
-0.02668059767
-0.03420579788
-0.0362476746
-0.03531753613
-0.03164708827
-0.03685158734
-0.04160241618
-0.03681931462
-0.03293581114
-0.04182097751
-0.03693439176
-0.04166499444
-0.03271083909
-0.03874406595
-0.02996506337
-0.03170705487
-0.03681244679
-0.04890504207
-0.03850219244
-0.04310883034
-0.04257802385
-0.04897291783
-0.04332692236
-0.04284217832
-0.03858745414
-0.04317483049
-0.04911977864
-0.04266616432
-0.03626562734
-0.03347528401
-0.0353430762
-0.03469237141
-0.03389345377
-0.03471303754
-0.03391036573
-0.03348501322
-0.0379639698
-0.04031218431
-0.04155557911
-0.03982546769
-0.04026241734
-0.03801803932
-0.03976946503
-0.03684339644
-0.03515822099
-0.03519920169
-0.03597239033
-0.03879974391
-0.03300327922
-0.0333937102
-0.03885335609
-0.03346183788
-0.03591496487
-0.03819566725
-0.04004530747
-0.04175095446
-0.04052565162
-0.04046150847
-0.0400057169
-0.03822898162
-0.03813290157
-0.0403701218
-0.04169883482
-0.03989228911
-0.04039865808
-0.03807892001
-0.03994506164
-0.0449619778
-0.04683139196
-0.04690444329
-0.04884805886
-0.04677549281
-0.04501729388
-0.04685146515
-0.04305645987
-0.04149492136
-0.04143844749
-0.04315412321
-0.04489703438
-0.0448428056
-0.04321058937
-0.04512501001
-0.0468999317
-0.04898666542
-0.04695809759
-0.04691871109
-0.04699890202
-0.04507727954
-0.04171485209
-0.04325574937
-0.04167499714
-0.0433865943
-0.04511747624
-0.04504082049
-0.04343137885
-0.0432026384
-0.04155956587
-0.04161422078
-0.04332566017
-0.04496497052
-0.04498901393
-0.04327373044
-0.04518551632
-0.04903662905
-0.04705059231
-0.04711134289
-0.04696999642
-0.04705671916
-0.04523515502
-0.01207741702
-0.01207186994
-0.04729380503
-0.01879227188
-0.04807954786
-0.03709181049
-0.02130127332
-0.02971355182
-0.05116764924
-0.05819182487
-0.04451979725
-0.0471529646
-0.05130720731
-0.05806836116
-0.04434601464
-0.05984191131
-0.04483106474
-0.04794581168
-0.05973460555
-0.0590055092
-0.04301042269
-0.05733546893
-0.05087700971
-0.05117566162
-0.05344228358
-0.04890912141
-0.0534470406
-0.04894032116
-0.05085438511
-0.05286583964
-0.05463375056
-0.05592409649
-0.05812792419
-0.05585059579
-0.05292606367
-0.05457339575
-0.05092588185
-0.05122404004
-0.05357517321
-0.04905189551
-0.05349598927
-0.04899344965
-0.05098521905
-0.05282169859
-0.05579489662
-0.05807413114
-0.0545300403
-0.0557992207
-0.05280746129
-0.0545352439
-0.05616888728
-0.05582966704
-0.05979882638
-0.06051563136
-0.05578095243
-0.06047664472
-0.0561973796
-0.0561299123
-0.06042883541
-0.05973923175
-0.05573701408
-0.05574369054
-0.06042581982
-0.05610859737
-0.05578440197
-0.05892324178
-0.06019729904
-0.05445280816
-0.06014844004
-0.05447712309
-0.05578839773
-0.04906185679
-0.05719256745
-0.05518639188
-0.05231480564
-0.05497735696
-0.05235031916
-0.04907664478
-0.03705083687
-0.03865024655
-0.035753478
-0.03705810734
-0.03573890816
-0.03862775253
-0.03707300605
-0.03400912202
-0.03414192769
-0.03138570034
-0.03160018597
-0.03131053403
-0.02932280153
-0.03679711452
-0.03680291308
-0.03840996849
-0.0355339826
-0.03548899829
-0.03684070314
-0.03836143994
-0.03697946816
-0.03699310952
-0.03849788293
-0.03561653528
-0.03567772938
-0.03692430678
-0.03855143666
-0.03538595448
-0.03356879188
-0.03277619881
-0.0340274765
-0.03408595351
-0.03362395847
-0.03537997372
-0.04024635032
-0.0387151952
-0.04021850788
-0.04174885936
-0.04001319831
-0.04178271641
-0.0399778161
-0.03658777943
-0.03889785107
-0.03673693911
-0.03379203119
-0.03371044015
-0.03522861979
-0.03914102811
-0.03905435073
-0.03531823337
-0.03845088848
-0.03999606363
-0.03994722544
-0.04147506372
-0.03975937408
-0.04152544024
-0.03970728851
-0.04310274844
-0.04472525176
-0.04139762005
-0.04252746461
-0.04315323506
-0.04467619432
-0.04134504269
-0.04337232135
-0.04166077201
-0.04497723135
-0.04279499706
-0.0449294695
-0.04341274837
-0.04162022341
-0.03864648992
-0.04008570501
-0.04014249664
-0.04167122672
-0.03984687131
-0.04161633512
-0.0399058751
-0.04329482769
-0.04481078307
-0.04272073818
-0.0414872774
-0.0448548329
-0.04324328664
-0.04154589105
-0.04955713149
-0.05071282539
-0.04687084013
-0.04722896987
-0.04962195272
-0.05064229187
-0.04680987909
-0.05139112627
-0.05155676305
-0.04740170251
-0.048012208
-0.05148206696
-0.05146807477
-0.04732879342
-0.03743861801
-0.04140108751
-0.04258737409
-0.04130765863
-0.03718771949
-0.03734070894
-0.04268007019
-0.03734262118
-0.04275818061
-0.03724535902
-0.04284743051
-0.04044416645
-0.03438384876
-0.03608491415
-0.02361220639
-0.03044725924
-0.04664145442
-0.04446769702
-0.04658702233
-0.04805106672
-0.04549013179
-0.0481108999
-0.04543264392
-0.0506001098
-0.04671756025
-0.04949565197
-0.04950290282
-0.04717209193
-0.05059574343
-0.0467468599
-0.0464847967
-0.04439497048
-0.04532577041
-0.04651792917
-0.0479689397
-0.04798915585
-0.04536455014
-0.05090371187
-0.04689032062
-0.04946429323
-0.04474719862
-0.0494047137
-0.05097796239
-0.04681189357
-0.05144998223
-0.04726737968
-0.05135809291
-0.0513511209
-0.04795934671
-0.05144066058
-0.04727840122
-0.04380456369
-0.03923433793
-0.047379949
-0.04292467552
-0.04734457506
-0.04383629774
-0.03913944277
-0.02258243652
-0.01956015539
-0.01939805661
-0.01720900855
-0.02487716468
-0.02073555859
-0.02111619832
-0.02547919814
-0.02351924713
-0.01388914419
-0.01714674676
-0.01116225697
-0.01569885113
-0.01166323559
-0.01105189615
-0.02491816189
-0.01743202132
-0.01237992053
-0.02267895951
-0.02481611309
-0.0288325963
-0.02872622843
-0.02263818518
-0.02099638735
-0.01974820579
-0.02095357003
-0.0197272555
-0.01824726302
-0.01827407092
-0.01603755419
-0.01101022532
-0.01598095009
-0.0148007745
-0.01097834901
-0.01487471509
-0.01091291926
-0.00888809794
-0.007666260033
-0.007521996339
-0.01147559155
-0.01167467267
-0.009037666576
-0.009209267506
-0.01229699105
-0.009155257656
-0.009330465982
-0.009224040055
-0.009433808568
-0.007288261876
-0.007138462169
-0.01395735925
-0.01078069905
-0.01124136648
-0.005616961011
-0.008823728838
0.00136800784
-0.002134736862
-0.008652349272
-0.003785176386
-0.05012105163
-0.05133612915
-0.05358494372
-0.05019610394
-0.05153817267
-0.05457280539
-0.04577779273
-0.04692969922
-0.05080809497
-0.04540519403
-0.04627958918
-0.05139698071
-0.04974413114
-0.05090877228
-0.05361602798
-0.04995634022
-0.05140069593
-0.05366684756
-0.04593674519
-0.04686596855
-0.05162499085
-0.04241377567
-0.04633255227
-0.05419043242
-0.04655520453
-0.0474746063
-0.05110567937
-0.04123826362
-0.04475650316
-0.05502342946
-0.02314643971
-0.02896740374
-0.03855697728
-0.02449913941
-0.0316229041
-0.03813769359
-0.0501982491
-0.05121340928
-0.05386730792
-0.04421618723
-0.0447045577
-0.04994004136
-0.04961049652
-0.05074060977
-0.0531253309
-0.04537580651
-0.04587425971
-0.04964498624
-0.0405380315
-0.04484968109
-0.05833888022
0.0613317491
0.05726476728
0.04967933271
-0.05709060334
-0.05805743423
-0.05996439521
-0.05758379732
-0.05832011859
-0.06062590981
-0.05765009808
-0.05861938716
-0.06130275306
-0.05768153089
-0.05860959801
-0.06062584586
-0.04288693527
-0.04654421791
-0.0561873296
-0.02390937974
-0.02936079473
-0.03564567795
-0.02266945244
-0.02789231829
-0.03552364225
-0.04282919608
-0.04557380805
-0.05329707156
-0.05720633747
-0.05811256602
-0.06057662044
-0.05757854681
-0.05818048087
-0.06016854114
-0.04313319387
-0.04686711785
-0.05492211757
0.1092716662
0.1174500472
0.1236370605
0.06331956637
0.05855775754
0.05239363595
0.1095526716
0.1173757403
0.1228862453
-0.03714767556
-0.03724990503
-0.03725860993
-0.03621049463
-0.03610201733
-0.03609382521
-0.03308507174
-0.03309476443
-0.033106058
-0.03707957819
-0.03719437433
-0.03720397673
-0.03614877336
-0.0360424157
-0.0360325781
-0.03512046093
-0.03513457169
-0.03514452643
-0.03300164826
-0.0330165102
-0.03302773472
-0.03407290623
-0.03410799123
-0.03411517071
0.004674108774
-0.01927793637
-0.01847728343
-0.0194087418
-0.01857408184
0.004679488575
-0.03696032654
-0.03705571847
-0.03706331322
-0.03300302102
-0.03300817229
-0.03301737789
-0.03601529128
-0.0359083101
-0.03590226189
-0.03280309816
-0.03281519813
-0.03283019825
-0.03358933807
-0.03349356079
-0.03345137466
-0.03339054811
-0.0333022625
-0.03325915376
-0.03690192163
-0.03701418373
-0.03702264205
-0.03393151967
-0.03396207055
-0.03396805741
-0.03291523036
-0.0329301716
-0.0329415975
-0.03595919516
-0.03585497498
-0.03584580383
-0.03493382212
-0.03494799875
-0.0349578618
-0.03370235157
-0.03373566664
-0.03374596391
-0.03283672532
-0.03285299985
-0.03286951257
-0.02861912476
-0.02857626591
-0.02860835134
-0.02716658448
-0.02724879105
-0.02732810604
-0.0284081119
-0.0283812724
-0.02842922979
-0.02710103886
-0.02716884209
-0.02724582706
-0.03355802027
-0.03345692862
-0.0334073741
-0.03149086765
-0.03145693269
-0.03143122517
-0.03347160787
-0.03338233084
-0.03334205726
-0.03358120237
-0.03349040273
-0.03345138676
-0.03699215113
-0.03709516575
-0.03710313377
-0.03301225426
-0.03302339418
-0.03303559299
-0.03603502971
-0.03593304271
-0.03592678665
-0.03157399819
-0.03152990489
-0.03151011735
-0.03364174891
-0.03354396165
-0.03349993442
-0.03703737316
-0.03714011715
-0.03714914368
-0.03305266608
-0.03306318281
-0.03307340911
-0.03393360424
-0.03396755596
-0.03397574346
-0.03610733099
-0.03599793842
-0.03598990363
-0.03496417965
-0.03497598958
-0.03498602117
-0.03682155695
-0.03691740566
-0.03692597357
-0.03588554435
-0.03577511837
-0.03576814853
-0.03685698886
-0.03695882974
-0.03696809095
-0.03591580364
-0.0358079609
-0.03580090475
-0.03478824445
-0.03480345007
-0.03481385446
-0.04385540465
-0.0439250449
-0.04393048307
-0.04196905758
-0.04200788537
-0.04201119434
-0.04212603023
-0.04216984943
-0.04217363151
-0.04580879328
-0.04590136968
-0.04590817559
-0.04380078571
-0.04387322404
-0.0438796788
-0.04574996519
-0.04584641225
-0.04585469348
-0.03937713629
-0.03941303422
-0.03940301124
-0.03932985265
-0.03936810734
-0.03935763859
-0.04031618104
-0.04032605903
-0.04033385515
-0.04202383576
-0.04206727918
-0.04207092964
-0.04037106625
-0.04038559472
-0.04039326186
-0.04047623938
-0.04049142722
-0.04049919915
-0.04207707265
-0.04212262082
-0.04212682329
-0.04042847445
-0.04044406066
-0.04045185277
-0.03506776204
-0.03507801713
-0.03508788811
-0.03403905614
-0.0340773824
-0.03408394829
-0.05017607641
-0.05033855395
-0.05035459415
-0.04368886107
-0.0437544785
-0.04375975544
-0.04998361515
-0.05014595389
-0.05016255116
-0.05260329958
-0.05283614641
-0.05286288909
-0.06058247843
-0.06126718174
-0.06136818817
-0.05241963783
-0.05264918
-0.05267577499
-0.06276555269
-0.06365305742
-0.06383999124
-0.0628697779
-0.06399234421
-0.06468553694
-0.05010569847
-0.05027454923
-0.0502925913
-0.04790995725
-0.04802971942
-0.04803963944
-0.04784493426
-0.04796988548
-0.04798169621
-0.04563185565
-0.04572254318
-0.04572960997
-0.04374588476
-0.04381663935
-0.04382256389
-0.04569364248
-0.04578896346
-0.04579672201
-0.05004998551
-0.05021827445
-0.0502358773
-0.0477219782
-0.04784150916
-0.04785203927
-0.04778740835
-0.04791162949
-0.04792297969
-0.05252999577
-0.05276976849
-0.05279810475
-0.05515761998
-0.05550214759
-0.05554760781
-0.05508590245
-0.05543602598
-0.05548213339
-0.05774544564
-0.05823136962
-0.05830245104
-0.06057118323
-0.06127447104
-0.06137960253
-0.05777014002
-0.05827472924
-0.05834905575
-0.05248079525
-0.05272001968
-0.05274811811
-0.05500097313
-0.05533614544
-0.05538017487
-0.05504842334
-0.05539887215
-0.05544514316
-0.06269597918
-0.06359222464
-0.06379576443
-0.06376074753
-0.06476559461
-0.06507020103
-0.06362945146
-0.06462410186
-0.06496729759
-0.06278035391
-0.06384410767
-0.06469001871
-0.06375144738
-0.06483679001
-0.06529248781
-0.06360409775
-0.06465854603
-0.06520050164
-0.06166656675
-0.06276491978
-0.06376573563
-0.06171325104
-0.06273437262
-0.06395358848
-0.06021740387
-0.0612318735
-0.06256137161
-0.06051232499
-0.0614184198
-0.06306122368
-0.0290378129
-0.02908417926
-0.02904997007
-0.01946732749
-0.0186191664
-0.02852633952
-0.0285758571
-0.02847400413
-0.009640046142
-0.009303225111
0.0008385166614
0.0006598461905
-0.009198281122
-0.008878977898
-0.01964145385
-0.01879813212
0.01120998228
0.0007315238643
0.0005051835088
0.0047503827
0.004426086378
0.004526463559
0.0107758091
-0.009155156176
-0.008845126156
0.0007186930194
0.0004806500216
-0.009044430159
-0.008713651971
0.01122362187
-0.02904126805
-0.02909305928
-0.02904051871
-0.02907028351
-0.02909852136
-0.02905415561
0.0006889794171
0.0004734964147
0.004679626349
0.004400962633
0.0110101981
0.004537831325
-0.03148516402
-0.03144288343
-0.03142143323
-0.03920373471
-0.03922773188
-0.03921612203
-0.03915602613
-0.03918905665
-0.03917693358
-0.03387468694
-0.03391148297
-0.03391784332
-0.03488336969
-0.03489424476
-0.03490455069
-0.03374398253
-0.03377998717
-0.03378972763
-0.03150028129
-0.03146882345
-0.03145322359
-0.02885779163
-0.0287735408
-0.02879414276
-0.02722913192
-0.02729433978
-0.02736276567
-0.02711918755
-0.02717532398
-0.02722976985
-0.02888002555
-0.02881647337
-0.02884347401
-0.03139464888
-0.03136532829
-0.03134039653
-0.03155438883
-0.03153175318
-0.03151244442
-0.02880136658
-0.02878330985
-0.02882916853
-0.02901841438
-0.02901705753
-0.0290505454
-0.02902515066
-0.02893599032
-0.02895433895
-0.02744150929
-0.02750095684
-0.0275592205
-0.02911557322
-0.02905502369
-0.02906386347
-0.02729311117
-0.02735158119
-0.02741024715
-0.03923741145
-0.03926552997
-0.03925449082
-0.03927730699
-0.03931028628
-0.03929970248
-0.034015333
-0.03405116755
-0.03405705687
-0.03501870983
-0.03503456079
-0.03504473062
-0.04174786942
-0.04179050088
-0.04179374221
-0.04193284887
-0.04196925339
-0.04197137401
-0.04178898437
-0.0418267158
-0.04182996518
-0.04973297022
-0.04990696315
-0.04992601284
-0.04345954141
-0.04353020772
-0.04353586619
-0.04977779489
-0.04993915885
-0.04995494506
-0.04364934022
-0.04371297196
-0.0437171084
-0.04350362651
-0.04356814951
-0.04357310838
-0.04993598984
-0.0501002312
-0.05011659674
-0.04010617976
-0.04011879495
-0.04012600633
-0.04169885619
-0.04174315504
-0.04174622402
-0.04005763482
-0.04007238965
-0.04007939688
-0.03905349135
-0.03908357725
-0.03907355525
-0.03909676833
-0.0391284384
-0.03911751995
-0.04188957646
-0.04193284275
-0.04193565921
-0.04027845661
-0.04028724822
-0.04029439858
-0.04024264824
-0.0402550138
-0.04026167038
-0.04014704138
-0.04015637927
-0.04016376389
-0.04183670855
-0.04187851203
-0.04188156077
-0.04019117073
-0.04020387697
-0.04021085807
-0.0348207411
-0.03483755623
-0.03484834737
-0.04747699661
-0.04760492643
-0.04761703445
-0.04968058369
-0.04986066876
-0.04988190483
-0.04742581148
-0.04755793513
-0.04757133313
-0.04340907463
-0.04348220208
-0.04348808136
-0.04539410494
-0.04549106329
-0.04549900586
-0.045343464
-0.04544348291
-0.04545205185
-0.04752131995
-0.04763982873
-0.0476496917
-0.04982312485
-0.05000091952
-0.05002126743
-0.04756772811
-0.04769757236
-0.04771034987
-0.04360413113
-0.04367648712
-0.04368213335
-0.04558977056
-0.04567896429
-0.04568482529
-0.04554110516
-0.04564145386
-0.04565006661
-0.04354966851
-0.04362029485
-0.04362597197
-0.04543822938
-0.04552770559
-0.0455342862
-0.04548538032
-0.04558294924
-0.04559112739
-0.04988098214
-0.05006518038
-0.05008715914
-0.047676318
-0.04779556585
-0.04780520642
-0.04762485933
-0.04775883063
-0.04777258905
-0.05221281929
-0.052441029
-0.05246669404
-0.06059363043
-0.06130116552
-0.06140908339
-0.05237305448
-0.05260877554
-0.05263625253
-0.06040083606
-0.06108385246
-0.0611839217
-0.06165280936
-0.06270590333
-0.063904713
-0.06280050962
-0.06370810865
-0.06391256687
-0.06261675503
-0.06350490202
-0.06368943391
-0.0628317517
-0.0639272877
-0.06475915307