# Force           
# CofR            : (0.0000000000e+00 0.0000000000e+00 0.0000000000e+00)
#
# Time            	total_x total_y total_z	pressure_x pressure_y pressure_z	viscous_x viscous_y viscous_z
1                  1.9628640992e+00 2.1411645576e-01 -3.8239207511e-03 1.8182112980e+00 2.1484352537e-01 -3.8435488928e-03 1.4465280116e-01 -7.2706960183e-04 1.9628141730e-05
2                  4.7486697512e-01 7.1927371779e-01 3.4272726703e-02 3.6322253147e-01 7.1364334367e-01 3.4345913392e-02 1.1164444365e-01 5.6303741287e-03 -7.3186689661e-05
3                  -3.9054089127e-01 6.6280079988e-01 2.8259565913e-02 -4.8392693208e-01 6.5942672255e-01 2.8533884802e-02 9.3386040814e-02 3.3740773241e-03 -2.7431888913e-04
4                  -1.3612851056e-01 2.0460768713e-01 9.3176253556e-04 -2.2397910521e-01 2.0543523689e-01 1.2171232249e-03 8.7850594644e-02 -8.2754975420e-04 -2.8536068937e-04
5                  2.7448875754e-01 3.2085927564e-01 3.2013886360e-03 1.9305090436e-01 3.2095911224e-01 3.3000007224e-03 8.1437853172e-02 -9.9836597087e-05 -9.8612086330e-05
6                  3.0996963534e-01 6.3424932400e-01 1.9105056844e-02 2.3598933711e-01 6.3264436172e-01 1.9177916405e-02 7.3980298230e-02 1.6049622776e-03 -7.2859560907e-05
7                  1.4697228601e-01 5.9521514565e-01 1.9154842627e-02 8.0353325587e-02 5.9329981498e-01 1.9344150077e-02 6.6618960419e-02 1.9153306715e-03 -1.8930744964e-04
8                  8.0769846270e-02 4.8523738032e-01 1.1646475890e-02 1.9795029021e-02 4.8361223557e-01 1.1859198662e-02 6.0974817249e-02 1.6251447465e-03 -2.1272277147e-04
9                  1.1963674566e-01 5.5238825117e-01 1.1823056550e-02 6.3222282838e-02 5.5106061508e-01 1.1985322547e-02 5.6414462817e-02 1.3276360928e-03 -1.6226599683e-04
10                 1.3435336741e-01 6.3132707649e-01 1.5871616623e-02 8.1836362419e-02 6.2992845144e-01 1.6028238030e-02 5.2517004993e-02 1.3986250445e-03 -1.5662140700e-04
11                 1.1605092650e-01 5.8485786071e-01 1.5709832762e-02 6.6198031722e-02 5.8356230374e-01 1.5891857109e-02 4.9852894773e-02 1.2955569619e-03 -1.8202434693e-04
12                 1.1480641648e-01 5.6208834457e-01 1.3258507512e-02 6.6909538641e-02 5.6056661204e-01 1.3446433725e-02 4.7896877838e-02 1.5217325322e-03 -1.8792621280e-04
13                 1.2634677792e-01 6.0878544656e-01 1.3014842237e-02 8.0532503272e-02 6.0731197785e-01 1.3205194160e-02 4.5814274649e-02 1.4734687098e-03 -1.9035192360e-04
14                 1.1613449289e-01 6.4799008035e-01 1.4181824520e-02 7.2411838520e-02 6.4630517516e-01 1.4387170221e-02 4.3722654367e-02 1.6849051891e-03 -2.0534570100e-04
15                 1.0457769691e-01 6.2545998440e-01 1.4470328164e-02 6.2226324337e-02 6.2395776013e-01 1.4690056176e-02 4.2351372576e-02 1.5022242733e-03 -2.1972801136e-04
16                 1.1067617518e-01 6.1363717748e-01 1.4047082602e-02 6.8901646918e-02 6.1205883403e-01 1.4274794812e-02 4.1774528267e-02 1.5783434539e-03 -2.2771220933e-04
17                 1.2083987957e-01 6.4170078731e-01 1.4021655298e-02 7.9924796873e-02 6.4020735111e-01 1.4257770340e-02 4.0915082697e-02 1.4934361923e-03 -2.3611504179e-04
18                 1.1318284704e-01 6.7693543613e-01 1.4179501367e-02 7.3725921681e-02 6.7519909564e-01 1.4431998553e-02 3.9456925354e-02 1.7363404873e-03 -2.5249718565e-04
19                 1.0210997183e-01 6.8081126383e-01 1.3958256274e-02 6.4048639309e-02 6.7914271036e-01 1.4221836536e-02 3.8061332525e-02 1.6685534720e-03 -2.6358026250e-04
20                 1.0429811486e-01 6.7232552012e-01 1.3707346411e-02 6.6681399804e-02 6.7056100080e-01 1.3972358590e-02 3.7616715057e-02 1.7645193227e-03 -2.6501217861e-04
21                 1.1725036885e-01 6.7186372668e-01 1.3858319943e-02 7.9679864186e-02 6.7024187889e-01 1.4128215630e-02 3.7570504664e-02 1.6218477886e-03 -2.6989568713e-04
22                 1.1890636075e-01 6.9370776334e-01 1.4198461136e-02 8.1756282039e-02 6.9192404257e-01 1.4480583371e-02 3.7150078712e-02 1.7837207693e-03 -2.8212223511e-04
23                 1.0967496457e-01 7.1629952667e-01 1.4276221261e-02 7.3844938499e-02 7.1459341059e-01 1.4576023906e-02 3.5830026067e-02 1.7061160803e-03 -2.9980264550e-04
24                 1.0164381102e-01 7.2781600135e-01 1.4054786486e-02 6.6980707295e-02 7.2594327650e-01 1.4363785740e-02 3.4663103728e-02 1.8727248585e-03 -3.0899925395e-04
25                 1.0650210573e-01 7.3129824322e-01 1.3879635251e-02 7.2221024724e-02 7.2953239971e-01 1.4191699544e-02 3.4281081006e-02 1.7658435099e-03 -3.1206429268e-04
26                 1.1379404691e-01 7.3487908808e-01 1.3947266720e-02 7.9377701315e-02 7.3301393410e-01 1.4261617566e-02 3.4416345596e-02 1.8651539748e-03 -3.1435084631e-04
27                 1.1651695727e-01 7.4040802272e-01 1.4102113902e-02 8.2280535382e-02 7.3866977439e-01 1.4426441810e-02 3.4236421886e-02 1.7382483218e-03 -3.2432790727e-04
28                 1.1138232549e-01 7.4767485549e-01 1.4193731590e-02 7.7770850444e-02 7.4578291643e-01 1.4532065785e-02 3.3611475049e-02 1.8919390677e-03 -3.3833419539e-04
29                 1.0836512384e-01 7.5604328538e-01 1.4184161738e-02 7.5506110504e-02 7.5424140285e-01 1.4534115220e-02 3.2859013335e-02 1.8018825324e-03 -3.4995348205e-04
30                 1.0831122703e-01 7.6457578075e-01 1.4120645043e-02 7.5844127153e-02 7.6265043878e-01 1.4479340129e-02 3.2467099873e-02 1.9253419772e-03 -3.5869508651e-04
31                 1.1173557525e-01 7.6801161717e-01 1.4079781319e-02 7.9459416574e-02 7.6619405973e-01 1.4443973909e-02 3.2276158676e-02 1.8175574344e-03 -3.6419259028e-04
32                 1.1267022983e-01 7.7214328482e-01 1.4079058352e-02 8.0468741940e-02 7.7020424730e-01 1.4450943340e-02 3.2201487892e-02 1.9390375200e-03 -3.7188498852e-04
33                 1.1277848268e-01 7.7416482683e-01 1.4128260354e-02 8.0829958660e-02 7.7231711745e-01 1.4509507566e-02 3.1948524020e-02 1.8477093856e-03 -3.8124721146e-04
34                 1.1081299699e-01 7.7704727889e-01 1.4195813720e-02 7.9157511983e-02 7.7507099222e-01 1.4587287746e-02 3.1655485003e-02 1.9762866746e-03 -3.9147402640e-04
35                 1.1100533704e-01 7.7650708875e-01 1.4230106406e-02 7.9702942772e-02 7.7460919318e-01 1.4629598858e-02 3.1302394267e-02 1.8978955712e-03 -3.9949245250e-04
36                 1.1090262559e-01 7.7776740112e-01 1.4197602302e-02 7.9783395646e-02 7.7574904144e-01 1.4607085040e-02 3.1119229943e-02 2.0183596789e-03 -4.0948273770e-04
37                 1.1194315494e-01 7.7702794173e-01 1.4162061054e-02 8.0991500197e-02 7.7510285044e-01 1.4579141853e-02 3.0951654742e-02 1.9250912924e-03 -4.1708079921e-04
38                 1.1135672064e-01 7.7849113930e-01 1.4159740778e-02 8.0506391029e-02 7.7646173811e-01 1.4585828319e-02 3.0850329615e-02 2.0294011911e-03 -4.2608754092e-04
39                 1.1184951839e-01 7.7619195229e-01 1.4206372911e-02 8.1196449272e-02 7.7424494615e-01 1.4640538276e-02 3.0653069121e-02 1.9470061421e-03 -4.3416536452e-04
40                 1.1106530038e-01 7.7608331938e-01 1.4240193266e-02 8.0542838060e-02 7.7402514772e-01 1.4683992800e-02 3.0522462320e-02 2.0581716695e-03 -4.4379953427e-04
41                 1.1155635809e-01 7.7310583593e-01 1.4245937906e-02 8.1179708636e-02 7.7112218885e-01 1.4696322276e-02 3.0376649453e-02 1.9836470819e-03 -4.5038436954e-04
42                 1.1086576676e-01 7.7225453605e-01 1.4217064174e-02 8.0560528951e-02 7.7017381803e-01 1.4676247922e-02 3.0305237806e-02 2.0807180173e-03 -4.5918374794e-04
43                 1.1135399180e-01 7.6831910276e-01 1.4210955696e-02 8.1175428491e-02 7.6631849754e-01 1.4676088107e-02 3.0178563311e-02 2.0006052191e-03 -4.6513241099e-04
44                 1.1059385548e-01 7.6678456290e-01 1.4216911896e-02 8.0495945118e-02 7.6468274270e-01 1.4691203289e-02 3.0097910365e-02 2.1018201992e-03 -4.7429139236e-04
45                 1.1103579653e-01 7.6156345042e-01 1.4241977021e-02 8.1012772362e-02 7.5953424495e-01 1.4721945722e-02 3.0023024168e-02 2.0292054741e-03 -4.7996870126e-04
46                 1.1011456236e-01 7.5871384797e-01 1.4242795770e-02 8.0116877983e-02 7.5659128938e-01 1.4730913552e-02 2.9997684374e-02 2.1225585891e-03 -4.8811778153e-04
47                 1.1057567866e-01 7.5268742390e-01 1.4235899193e-02 8.0659650560e-02 7.5065132181e-01 1.4729543555e-02 2.9916028102e-02 2.0361020957e-03 -4.9364436226e-04
48                 1.0973239878e-01 7.4872864864e-01 1.4225953693e-02 7.9858459638e-02 7.4658516811e-01 1.4727742139e-02 2.9873939139e-02 2.1434805299e-03 -5.0178844613e-04
49                 1.0996090439e-01 7.4163146232e-01 1.4222780304e-02 8.0123706982e-02 7.3955716845e-01 1.4728912504e-02 2.9837197412e-02 2.0742938658e-03 -5.0613219991e-04
50                 1.0900217734e-01 7.3692554190e-01 1.4227412748e-02 7.9175609584e-02 7.3476048502e-01 1.4738959955e-02 2.9826567756e-02 2.1650568795e-03 -5.1154720678e-04
51                 1.0945349850e-01 7.2900580959e-01 1.4226613571e-02 7.9681052443e-02 7.2692682009e-01 1.4743318714e-02 2.9772446055e-02 2.0789894937e-03 -5.1670514327e-04
52                 1.0855141525e-01 7.2365549971e-01 1.4219862806e-02 7.8790995214e-02 7.2146847542e-01 1.4742963153e-02 2.9760420040e-02 2.1870242863e-03 -5.2310034733e-04
53                 1.0887149579e-01 7.1533846684e-01 1.4208077950e-02 7.9133255496e-02 7.1323797005e-01 1.4735397587e-02 2.9738240294e-02 2.1004967910e-03 -5.2731963679e-04
54                 1.0793510191e-01 7.0997435610e-01 1.4204029722e-02 7.8199117055e-02 7.0777891976e-01 1.4736056483e-02 2.9735984859e-02 2.1954363496e-03 -5.3202676133e-04
55                 1.0838052644e-01 7.0165685786e-01 1.4202766837e-02 7.8678815495e-02 6.9954918543e-01 1.4738080709e-02 2.9701710940e-02 2.1076724250e-03 -5.3531387221e-04
56                 1.0756503055e-01 6.9667552529e-01 1.4201610763e-02 7.7872248979e-02 6.9447138815e-01 1.4741929898e-02 2.9692781572e-02 2.2041371407e-03 -5.4031913484e-04
57                 1.0798237178e-01 6.8867781774e-01 1.4190001368e-02 7.8302402582e-02 6.8656455257e-01 1.4733209423e-02 2.9679969200e-02 2.1132651683e-03 -5.4320805460e-04
58                 1.0712112209e-01 6.8385095325e-01 1.4185444956e-02 7.7425751059e-02 6.8165273939e-01 1.4730739370e-02 2.9695371030e-02 2.1982138621e-03 -5.4529441431e-04
59                 1.0755699509e-01 6.7617275664e-01 1.4173707909e-02 7.7893417384e-02 6.7406305818e-01 1.4722191439e-02 2.9663577705e-02 2.1096984652e-03 -5.4848353021e-04
60                 1.0684007747e-01 6.7184024815e-01 1.4172240770e-02 7.7178945160e-02 6.6964159251e-01 1.4725099689e-02 2.9661132311e-02 2.1986556383e-03 -5.5285891849e-04
61                 1.0729363131e-01 6.6455286804e-01 1.4162801051e-02 7.7635921187e-02 6.6244683600e-01 1.4716145145e-02 2.9657710125e-02 2.1060320378e-03 -5.5334409470e-04
62                 1.0657059993e-01 6.6064974377e-01 1.4160020817e-02 7.6897529457e-02 6.5845917521e-01 1.4714868741e-02 2.9673070475e-02 2.1905685601e-03 -5.5484792418e-04
63                 1.0705393842e-01 6.5388817245e-01 1.4155891484e-02 7.7413911298e-02 6.5179309684e-01 1.4711598122e-02 2.9640027124e-02 2.0950756121e-03 -5.5570663818e-04
64                 1.0626173108e-01 6.5053953624e-01 1.4150342981e-02 7.6618124845e-02 6.4835188639e-01 1.4707531611e-02 2.9643606240e-02 2.1876498447e-03 -5.5718863004e-04
65                 1.0683215965e-01 6.4406878052e-01 1.4148467590e-02 7.7203086033e-02 6.4197768627e-01 1.4706803559e-02 2.9629073617e-02 2.0910942502e-03 -5.5833596946e-04
66                 1.0617573395e-01 6.4111342187e-01 1.4128494464e-02 7.6528916151e-02 6.3893627600e-01 1.4688257009e-02 2.9646817797e-02 2.1771458729e-03 -5.5976254493e-04
67                 1.0667908711e-01 6.3522060928e-01 1.4131241930e-02 7.7071615737e-02 6.3313446758e-01 1.4691375756e-02 2.9607471374e-02 2.0861416951e-03 -5.6013382627e-04
68                 1.0592585785e-01 6.3303172202e-01 1.4122309954e-02 7.6319818023e-02 6.3085177146e-01 1.4684816517e-02 2.9606039825e-02 2.1799505645e-03 -5.6250656261e-04
69                 1.0651141549e-01 6.2732824114e-01 1.4125862660e-02 7.6921141423e-02 6.2524581468e-01 1.4688106249e-02 2.9590274071e-02 2.0824264612e-03 -5.6224358866e-04
70                 1.0584887655e-01 6.2544246572e-01 1.4111430665e-02 7.6234071306e-02 6.2327568095e-01 1.4675104852e-02 2.9614805240e-02 2.1667847750e-03 -5.6367418732e-04
71                 1.0646810310e-01 6.2033254358e-01 1.4112415631e-02 7.6889087013e-02 6.1826533283e-01 1.4676241345e-02 2.9579016088e-02 2.0672107459e-03 -5.6382571418e-04
72                 1.0572966949e-01 6.1878760241e-01 1.4100174432e-02 7.6152718694e-02 6.1662313074e-01 1.4667051614e-02 2.9576950801e-02 2.1644716741e-03 -5.6687718149e-04
73                 1.0625747088e-01 6.1383292758e-01 1.4105707002e-02 7.6693875074e-02 6.1176269638e-01 1.4672521520e-02 2.9563595806e-02 2.0702312023e-03 -5.6681451834e-04
74                 1.0563277244e-01 6.1270187201e-01 1.4092026266e-02 7.6050995744e-02 6.1054465193e-01 1.4660073558e-02 2.9581776699e-02 2.1572200719e-03 -5.6804729160e-04
75                 1.0637002107e-01 6.0821099736e-01 1.4095318057e-02 7.6828881620e-02 6.0615919442e-01 1.4664212178e-02 2.9541139449e-02 2.0518029398e-03 -5.6889412100e-04
76                 1.0561550948e-01 6.0748822673e-01 1.4081503778e-02 7.6074488111e-02 6.0533078885e-01 1.4652468430e-02 2.9541021372e-02 2.1574378763e-03 -5.7096465239e-04
77                 1.0616008927e-01 6.0331692166e-01 1.4081973718e-02 7.6638533098e-02 6.0125623202e-01 1.4653092398e-02 2.9521556168e-02 2.0606896379e-03 -5.7111867984e-04
78                 1.0548943458e-01 6.0291197104e-01 1.4072534349e-02 7.5952046233e-02 6.0076301631e-01 1.4644453661e-02 2.9537388347e-02 2.1489547315e-03 -5.7191931254e-04
79                 1.0625791800e-01 5.9897233956e-01 1.4078338030e-02 7.6751779859e-02 5.9692301140e-01 1.4648822674e-02 2.9506138139e-02 2.0493281538e-03 -5.7048464350e-04
80                 1.0557651142e-01 5.9886321280e-01 1.4069964600e-02 7.6065121466e-02 5.9671891382e-01 1.4642163245e-02 2.9511389956e-02 2.1442989793e-03 -5.7219864494e-04
81                 1.0612799765e-01 5.9514244536e-01 1.4071619732e-02 7.6640590790e-02 5.9309243487e-01 1.4642273017e-02 2.9487406858e-02 2.0500104916e-03 -5.7065328480e-04
82                 1.0540862833e-01 5.9539410102e-01 1.4063125289e-02 7.5899394796e-02 5.9324929665e-01 1.4633664373e-02 2.9509233530e-02 2.1448043679e-03 -5.7053908400e-04
83                 1.0624184609e-01 5.9173685081e-01 1.4070527587e-02 7.6758766740e-02 5.8970002080e-01 1.4639148331e-02 2.9483079352e-02 2.0368300168e-03 -5.6862074344e-04
84                 1.0552682301e-01 5.9196014747e-01 1.4063802053e-02 7.6043205492e-02 5.8982611962e-01 1.4633323745e-02 2.9483617522e-02 2.1340278525e-03 -5.6952169168e-04
85                 1.0611555779e-01 5.8860861932e-01 1.4067717899e-02 7.6654950809e-02 5.8656050557e-01 1.4635462152e-02 2.9460606982e-02 2.0481137589e-03 -5.6774425320e-04
86                 1.0541368930e-01 5.8920151497e-01 1.4059746391e-02 7.5931095975e-02 5.8706233930e-01 1.4627119494e-02 2.9482593321e-02 2.1391756690e-03 -5.6737310274e-04
87                 1.0613739781e-01 5.8571635234e-01 1.4066122862e-02 7.6679335250e-02 5.8368076866e-01 1.4631919472e-02 2.9458062562e-02 2.0355836877e-03 -5.6579661000e-04
88                 1.0543986920e-01 5.8640157909e-01 1.4055162743e-02 7.5980564916e-02 5.8427410275e-01 1.4621548522e-02 2.9459304287e-02 2.1274763401e-03 -5.6638577890e-04
89                 1.0608605965e-01 5.8299706446e-01 1.4063138431e-02 7.6638705817e-02 5.8096169381e-01 1.4628993087e-02 2.9447353834e-02 2.0353706554e-03 -5.6585465585e-04
90                 1.0542871637e-01 5.8389267485e-01 1.4053158297e-02 7.5962305315e-02 5.8176900529e-01 1.4619456914e-02 2.9466411054e-02 2.1236695599e-03 -5.6629861702e-04
91                 1.0613353685e-01 5.8067083705e-01 1.4061225942e-02 7.6691386470e-02 5.7864029850e-01 1.4626319027e-02 2.9442150380e-02 2.0305385517e-03 -5.6509308544e-04
92                 1.0538345724e-01 5.8167385862e-01 1.4047341817e-02 7.5939136360e-02 5.7954465013e-01 1.4614205544e-02 2.9444320881e-02 2.1292084869e-03 -5.6686372708e-04
93                 1.0605219272e-01 5.7832557653e-01 1.4054454754e-02 7.6622647907e-02 5.7628602629e-01 1.4621253677e-02 2.9429544812e-02 2.0395502492e-03 -5.6679892292e-04
94                 1.0533370864e-01 5.7936603442e-01 1.4046683755e-02 7.5883124713e-02 5.7724426683e-01 1.4613983485e-02 2.9450583923e-02 2.1217676000e-03 -5.6729973005e-04
95                 1.0607479447e-01 5.7618310133e-01 1.4050622924e-02 7.6639978834e-02 5.7415988835e-01 1.4616676015e-02 2.9434815638e-02 2.0232129877e-03 -5.6605309129e-04
96                 1.0539443816e-01 5.7727741977e-01 1.4051605182e-02 7.5964403178e-02 5.7516342237e-01 1.4619189354e-02 2.9430034980e-02 2.1139973929e-03 -5.6758417156e-04
97                 1.0599134143e-01 5.7400080210e-01 1.4046732429e-02 7.6567692610e-02 5.7196385474e-01 1.4614077887e-02 2.9423648825e-02 2.0369473616e-03 -5.6734545779e-04
98                 1.0530726033e-01 5.7553692176e-01 1.4042633787e-02 7.5877911184e-02 5.7341466482e-01 1.4609174825e-02 2.9429349150e-02 2.1222569356e-03 -5.6654103732e-04
99                 1.0607209228e-01 5.7227091135e-01 1.4037721755e-02 7.6662990708e-02 5.7024289370e-01 1.4603750619e-02 2.9409101577e-02 2.0280176595e-03 -5.6602886472e-04
100                1.0529446200e-01 5.7383143207e-01 1.4047709449e-02 7.5883529169e-02 5.7171430618e-01 1.4614899049e-02 2.9410932831e-02 2.1171258885e-03 -5.6718959946e-04
101                1.0594374014e-01 5.7078656848e-01 1.4043139070e-02 7.6531635854e-02 5.6876491126e-01 1.4609987411e-02 2.9412104286e-02 2.0216572145e-03 -5.6684834069e-04
102                1.0528836707e-01 5.7229226985e-01 1.4037779806e-02 7.5862408327e-02 5.7018674664e-01 1.4605463568e-02 2.9425958745e-02 2.1055232124e-03 -5.6768376138e-04
103                1.0607068799e-01 5.6933580031e-01 1.4040111227e-02 7.6653771069e-02 5.6731943171e-01 1.4606726980e-02 2.9416916918e-02 2.0163685972e-03 -5.6661575251e-04
104                1.0531520661e-01 5.7110161236e-01 1.4045984857e-02 7.5902046050e-02 5.6899249866e-01 1.4614154007e-02 2.9413160562e-02 2.1091136996e-03 -5.6816914971e-04
105                1.0596425261e-01 5.6825444214e-01 1.4033987708e-02 7.6560449369e-02 5.6622962737e-01 1.4601886517e-02 2.9403803237e-02 2.0248147688e-03 -5.6789880853e-04
106                1.0526470649e-01 5.6984663185e-01 1.4035178380e-02 7.5834616412e-02 5.6773751047e-01 1.4601636515e-02 2.9430090078e-02 2.1091213814e-03 -5.6645813459e-04
107                1.0597440358e-01 5.6730413814e-01 1.4036375321e-02 7.6560770045e-02 5.6529704043e-01 1.4601684762e-02 2.9413633532e-02 2.0070977137e-03 -5.6530944111e-04
108                1.0539885197e-01 5.6897598527e-01 1.4039588053e-02 7.5987279094e-02 5.6688693399e-01 1.4605459829e-02 2.9411572875e-02 2.0890512793e-03 -5.6587177561e-04
109                1.0600976258e-01 5.6622026386e-01 1.4034239188e-02 7.6609208730e-02 5.6421126060e-01 1.4599321193e-02 2.9400553846e-02 2.0090032590e-03 -5.6508200552e-04
110                1.0517434256e-01 5.6788728661e-01 1.4033305206e-02 7.5757874208e-02 5.6577652521e-01 1.4597939043e-02 2.9416468356e-02 2.1107614060e-03 -5.6463383677e-04
111                1.0597505464e-01 5.6579147655e-01 1.4035796283e-02 7.6585318075e-02 5.6377594951e-01 1.4599980673e-02 2.9389736567e-02 2.0155270471e-03 -5.6418439041e-04
112                1.0534944681e-01 5.6741619668e-01 1.4038831183e-02 7.5946381369e-02 5.6530935694e-01 1.4604108537e-02 2.9403065446e-02 2.1068397406e-03 -5.6527735398e-04
113                1.0596879628e-01 5.6498789129e-01 1.4031726614e-02 7.6578293034e-02 5.6297335957e-01 1.4597520720e-02 2.9390503242e-02 2.0145317256e-03 -5.6579410540e-04
114                1.0517960007e-01 5.6683048140e-01 1.4027139921e-02 7.5772308653e-02 5.6472375739e-01 1.4593353890e-02 2.9407291420e-02 2.1067240053e-03 -5.6621396854e-04
115                1.0598361088e-01 5.6455556195e-01 1.4030818497e-02 7.6587397725e-02 5.6254781851e-01 1.4596695122e-02 2.9396213150e-02 2.0077434401e-03 -5.6587662509e-04
116                1.0541278231e-01 5.6664774094e-01 1.4034646006e-02 7.6012120816e-02 5.6454910401e-01 1.4601483217e-02 2.9400661494e-02 2.0986369318e-03 -5.6683721143e-04
117                1.0600359905e-01 5.6420216455e-01 1.4030360629e-02 7.6625460050e-02 5.6218253307e-01 1.4598189634e-02 2.9378139005e-02 2.0196314828e-03 -5.6782900496e-04
118                1.0516779224e-01 5.6638807655e-01 1.4024920190e-02 7.5766526077e-02 5.6427623068e-01 1.4592279847e-02 2.9401266162e-02 2.1118458726e-03 -5.6735965674e-04
119                1.0597382330e-01 5.6439980129e-01 1.4034269963e-02 7.6591264811e-02 5.6239646027e-01 1.4601322475e-02 2.9382558493e-02 2.0033410169e-03 -5.6705251158e-04
120                1.0541144773e-01 5.6628861807e-01 1.4028491101e-02 7.6018581808e-02 5.6419924126e-01 1.4597738269e-02 2.9392865923e-02 2.0893768065e-03 -5.6924716847e-04
121                1.0600733928e-01 5.6386096891e-01 1.4027176921e-02 7.6626049968e-02 5.6185362351e-01 1.4595127737e-02 2.9381289307e-02 2.0073453959e-03 -5.6795081579e-04
122                1.0522396405e-01 5.6618617062e-01 1.4018038215e-02 7.5830795055e-02 5.6407902711e-01 1.4586340178e-02 2.9393168991e-02 2.1071435056e-03 -5.6830196303e-04
123                1.0605556435e-01 5.6410004979e-01 1.4035257247e-02 7.6687449856e-02 5.6209016009e-01 1.4601870742e-02 2.9368114491e-02 2.0098896999e-03 -5.6661349445e-04
124                1.0539825955e-01 5.6616806790e-01 1.4033656337e-02 7.6017781507e-02 5.6406448574e-01 1.4601083023e-02 2.9380478048e-02 2.1035821618e-03 -5.6742668607e-04
125                1.0597148666e-01 5.6400968359e-01 1.4030666123e-02 7.6602393090e-02 5.6200463550e-01 1.4597254286e-02 2.9369093570e-02 2.0050480888e-03 -5.6658816320e-04
126                1.0525327042e-01 5.6614008837e-01 1.4019010438e-02 7.5867050277e-02 5.6404477261e-01 1.4586162037e-02 2.9386220142e-02 2.0953157541e-03 -5.6715159876e-04
127                1.0606048716e-01 5.6394458822e-01 1.4035306643e-02 7.6683562883e-02 5.6194757508e-01 1.4599842215e-02 2.9376924281e-02 1.9970131360e-03 -5.6453557224e-04
128                1.0540625661e-01 5.6588548432e-01 1.4030176443e-02 7.6022732406e-02 5.6379009973e-01 1.4595880325e-02 2.9383524209e-02 2.0953845921e-03 -5.6570388202e-04
129                1.0597655634e-01 5.6365524626e-01 1.4034822851e-02 7.6616004193e-02 5.6164086438e-01 1.4599159181e-02 2.9360552151e-02 2.0143818860e-03 -5.6433632988e-04
130                1.0521379157e-01 5.6561762173e-01 1.4022424234e-02 7.5822694089e-02 5.6350929070e-01 1.4585610150e-02 2.9391097480e-02 2.1083310212e-03 -5.6318591655e-04
131                1.0595823813e-01 5.6346479418e-01 1.4038256587e-02 7.6579747832e-02 5.6146850899e-01 1.4599294556e-02 2.9378490301e-02 1.9962851837e-03 -5.6103796898e-04
132                1.0535904187e-01 5.6518143190e-01 1.4029621909e-02 7.5973975185e-02 5.6309714850e-01 1.4591544749e-02 2.9385066684e-02 2.0842834042e-03 -5.6192283980e-04
133                1.0596410222e-01 5.6290660989e-01 1.4034932313e-02 7.6591393655e-02 5.6090728004e-01 1.4594356065e-02 2.9372708563e-02 1.9993298498e-03 -5.5942375216e-04
134                1.0523065886e-01 5.6494501379e-01 1.4026569259e-02 7.5845944214e-02 5.6284406679e-01 1.4585684411e-02 2.9384714644e-02 2.1009470046e-03 -5.5911515242e-04
135                1.0598007924e-01 5.6286505035e-01 1.4037787458e-02 7.6621648517e-02 5.6085461144e-01 1.4595428550e-02 2.9358430725e-02 2.0104389092e-03 -5.5764109261e-04
136                1.0534314195e-01 5.6482808257e-01 1.4043713026e-02 7.5973792420e-02 5.6272648213e-01 1.4601677502e-02 2.9369349528e-02 2.1016004434e-03 -5.5796447634e-04
137                1.0591918299e-01 5.6286075014e-01 1.4033968290e-02 7.6563302402e-02 5.6084959722e-01 1.4591185611e-02 2.9355880592e-02 2.0111529217e-03 -5.5721732149e-04
138                1.0524091020e-01 5.6495973431e-01 1.4028551425e-02 7.5872634271e-02 5.6286361600e-01 1.4585855702e-02 2.9368275933e-02 2.0961183144e-03 -5.5730427749e-04
139                1.0599448755e-01 5.6295078506e-01 1.4032848807e-02 7.6634852498e-02 5.6095540382e-01 1.4588275284e-02 2.9359635050e-02 1.9953812323e-03 -5.5542647664e-04
140                1.0538232444e-01 5.6511326149e-01 1.4042867705e-02 7.6016657222e-02 5.6302079510e-01 1.4599840190e-02 2.9365667220e-02 2.0924663892e-03 -5.5697248503e-04
141                1.0599888207e-01 5.6303726631e-01 1.4037855414e-02 7.6656002126e-02 5.6102420731e-01 1.4595070650e-02 2.9342879942e-02 2.0130590035e-03 -5.5721523632e-04
142                1.0518877484e-01 5.6510754430e-01 1.4029433356e-02 7.5828473334e-02 5.6299943679e-01 1.4586961344e-02 2.9360301505e-02 2.1081075035e-03 -5.5752798847e-04
143                1.0590452351e-01 5.6320765670e-01 1.4037652196e-02 7.6553101541e-02 5.6120589638e-01 1.4595229588e-02 2.9351421970e-02 2.0017603129e-03 -5.5757739151e-04
144                1.0538225491e-01 5.6505300756e-01 1.4043623322e-02 7.6020675108e-02 5.6297141753e-01 1.4603922632e-02 2.9361579806e-02 2.0815900216e-03 -5.6029930993e-04
145                1.0602158218e-01 5.6283255808e-01 1.4031365081e-02 7.6669885184e-02 5.6083856998e-01 1.4592027044e-02 2.9351696994e-02 1.9939881000e-03 -5.6066196242e-04
146                1.0522092424e-01 5.6493609437e-01 1.4026876920e-02 7.5857975014e-02 5.6283814327e-01 1.4588161513e-02 2.9362949231e-02 2.0979510952e-03 -5.6128459273e-04
147                1.0595969423e-01 5.6286435489e-01 1.4031322343e-02 7.6616159525e-02 5.6085094794e-01 1.4593061965e-02 2.9343534701e-02 2.0134069511e-03 -5.6173962239e-04
148                1.0532530306e-01 5.6487719894e-01 1.4033803136e-02 7.5974196906e-02 5.6277867018e-01 1.4596838352e-02 2.9351106153e-02 2.0985287656e-03 -5.6303521507e-04
149                1.0591222372e-01 5.6280972294e-01 1.4026563044e-02 7.6573121313e-02 5.6080097790e-01 1.4590060777e-02 2.9339102404e-02 2.0087450405e-03 -5.6349773363e-04
150                1.0522570651e-01 5.6482911741e-01 1.4025148524e-02 7.5862403098e-02 5.6273413789e-01 1.4589947725e-02 2.9363303410e-02 2.0949795242e-03 -5.6479920125e-04
151                1.0597771754e-01 5.6284868735e-01 1.4029882073e-02 7.6618147862e-02 5.6085537018e-01 1.4594518061e-02 2.9359569673e-02 1.9933171668e-03 -5.6463598807e-04
152                1.0538332175e-01 5.6497270403e-01 1.4031551275e-02 7.6022532742e-02 5.6288282291e-01 1.4597326684e-02 2.9360789004e-02 2.0898811180e-03 -5.6577540885e-04
153                1.0602603019e-01 5.6283252987e-01 1.4025751825e-02 7.6689332234e-02 5.6081653832e-01 1.4591867418e-02 2.9336697956e-02 2.0159915503e-03 -5.6611559284e-04
154                1.0518199315e-01 5.6508658073e-01 1.4023522411e-02 7.5818602226e-02 5.6297475303e-01 1.4588851575e-02 2.9363390927e-02 2.1118277018e-03 -5.6532916414e-04
155                1.0593927425e-01 5.6326401516e-01 1.4031089250e-02 7.6584346334e-02 5.6126658106e-01 1.4595148964e-02 2.9354927915e-02 1.9974341073e-03 -5.6405971394e-04
156                1.0541128426e-01 5.6520005903e-01 1.4032529792e-02 7.6047450038e-02 5.6311725953e-01 1.4597189208e-02 2.9363834220e-02 2.0827995024e-03 -5.6465941568e-04
157                1.0605779119e-01 5.6306216326e-01 1.4037873618e-02 7.6701927116e-02 5.6106218029e-01 1.4600786712e-02 2.9355864071e-02 1.9999829706e-03 -5.6291309353e-04
158                1.0524579254e-01 5.6544372417e-01 1.4025548471e-02 7.5877283857e-02 5.6334390277e-01 1.4587791779e-02 2.9368508683e-02 2.0998213973e-03 -5.6224330804e-04
159                1.0597960253e-01 5.6343368638e-01 1.4038750845e-02 7.6636481924e-02 5.6142643879e-01 1.4599378921e-02 2.9343120605e-02 2.0072475901e-03 -5.6062807575e-04
160                1.0538702176e-01 5.6541624501e-01 1.4036735893e-02 7.6024800666e-02 5.6331510481e-01 1.4597046719e-02 2.9362221093e-02 2.1011401926e-03 -5.6031082697e-04
161                1.0597607316e-01 5.6353061685e-01 1.4039957919e-02 7.6628340088e-02 5.6152358102e-01 1.4599048001e-02 2.9347733071e-02 2.0070358276e-03 -5.5909008271e-04
162                1.0525897942e-01 5.6559831385e-01 1.4027558167e-02 7.5893087775e-02 5.6350508763e-01 1.4586572352e-02 2.9365891650e-02 2.0932262219e-03 -5.5901418544e-04
163                1.0602136502e-01 5.6343015978e-01 1.4040028782e-02 7.6663789635e-02 5.6143232044e-01 1.4596146778e-02 2.9357575382e-02 1.9978393358e-03 -5.5611799676e-04
164                1.0541841434e-01 5.6560993121e-01 1.4041451047e-02 7.6052209308e-02 5.6351638407e-01 1.4598508170e-02 2.9366205031e-02 2.0935471410e-03 -5.5705712218e-04
165                1.0604147714e-01 5.6356373433e-01 1.4043824732e-02 7.6705566194e-02 5.6154859014e-01 1.4599976502e-02 2.9335910943e-02 2.0151441933e-03 -5.5615176973e-04
166                1.0526506476e-01 5.6561104259e-01 1.4031990771e-02 7.5903780834e-02 5.6350557571e-01 1.4587959631e-02 2.9361283922e-02 2.1054668725e-03 -5.5596885926e-04
167                1.0593357108e-01 5.6376367844e-01 1.4044990141e-02 7.6586201872e-02 5.6176017851e-01 1.4599688734e-02 2.9347369209e-02 2.0034999283e-03 -5.5469859259e-04
168                1.0542761060e-01 5.6590986855e-01 1.4039201666e-02 7.6069610088e-02 5.6382489954e-01 1.4595340605e-02 2.9358000513e-02 2.0849690101e-03 -5.5613893915e-04
169                1.0609490540e-01 5.6371619358e-01 1.4042344666e-02 7.6748784663e-02 5.6171505749e-01 1.4597781462e-02 2.9346120738e-02 2.0011360841e-03 -5.5543679534e-04
170                1.0528416876e-01 5.6609082191e-01 1.4031459800e-02 7.5923536856e-02 5.6398808327e-01 1.4586674931e-02 2.9360631901e-02 2.1027386383e-03 -5.5521513084e-04
171                1.0600185342e-01 5.6406836477e-01 1.4045446172e-02 7.6663554718e-02 5.6205525229e-01 1.4599888741e-02 2.9338298704e-02 2.0131124765e-03 -5.5444256858e-04
172                1.0540042365e-01 5.6607236644e-01 1.4033655100e-02 7.6043715264e-02 5.6397340283e-01 1.4588848245e-02 2.9356708387e-02 2.0989636109e-03 -5.5519314554e-04