# Moment          
# CofR            : (0.0000000000e+00 0.0000000000e+00 0.0000000000e+00)
#
# Time            	total_x total_y total_z	pressure_x pressure_y pressure_z	viscous_x viscous_y viscous_z
1                  -2.9605692229e-02 2.9075675485e-01 5.7494632927e-02 -2.9713431403e-02 2.6878681393e-01 5.7691812531e-02 1.0773917381e-04 2.1969940916e-02 -1.9717960446e-04
2                  -1.0296151063e-01 7.1145816656e-02 1.0094744124e-02 -1.0211490264e-01 5.4137726124e-02 1.0718491987e-02 -8.4660799173e-04 1.7008090532e-02 -6.2374786316e-04
3                  -9.4058405626e-02 -5.6806871286e-02 -1.7281603116e-02 -9.3545333896e-02 -7.1043019530e-02 -1.6911550253e-02 -5.1307173052e-04 1.4236148244e-02 -3.7005286330e-04
4                  -2.7446039629e-02 -1.9204087748e-02 1.2438969533e-03 -2.7560620879e-02 -3.2560940364e-02 1.3334100643e-03 1.1458124974e-04 1.3356852616e-02 -8.9513110938e-05
5                  -4.4099251319e-02 4.1369955251e-02 1.4837553551e-02 -4.4113011935e-02 2.8983601110e-02 1.4951186556e-02 1.3760616162e-05 1.2386354140e-02 -1.1363300459e-04
6                  -8.9299072376e-02 4.6340453825e-02 8.9354806873e-03 -8.9052047077e-02 3.5077186753e-02 9.1469132992e-03 -2.4702529910e-04 1.1263267072e-02 -2.1143261187e-04
7                  -8.2957678868e-02 2.2174488518e-02 1.6793542617e-03 -8.2660271235e-02 1.2019555072e-02 1.8995050710e-03 -2.9740763320e-04 1.0154933445e-02 -2.2015080927e-04
8                  -6.6457499405e-02 1.2539399031e-02 2.8582476345e-03 -6.6199658651e-02 3.2357838089e-03 3.0480848528e-03 -2.5784075393e-04 9.3036152223e-03 -1.8983721824e-04
9                  -7.6169158892e-02 1.8476608910e-02 5.4934859275e-03 -7.5956199205e-02 9.8564089968e-03 5.6516472414e-03 -2.1295968754e-04 8.6201999132e-03 -1.5816131387e-04
10                 -8.7460832099e-02 2.0699442065e-02 3.7286280504e-03 -8.7231923747e-02 1.2652912573e-02 3.8930882183e-03 -2.2890835181e-04 8.0465294919e-03 -1.6446016788e-04
11                 -8.0425071012e-02 1.7941343722e-02 1.5547909343e-03 -8.0214366399e-02 1.0292493772e-02 1.7109511532e-03 -2.1070461351e-04 7.6488499501e-03 -1.5616021899e-04
12                 -7.7091316764e-02 1.7641616312e-02 2.3240029685e-03 -7.6841184065e-02 1.0286995584e-02 2.4837034565e-03 -2.5013269929e-04 7.3546207288e-03 -1.5970048792e-04
13                 -8.3624590667e-02 1.9336311063e-02 3.9955161230e-03 -8.3386295565e-02 1.2284291037e-02 4.1435651309e-03 -2.3829510216e-04 7.0520200265e-03 -1.4804900788e-04
14                 -8.9163409391e-02 1.7880538863e-02 3.2032309653e-03 -8.8891489572e-02 1.1133715506e-02 3.3566500261e-03 -2.7191981927e-04 6.7468233565e-03 -1.5341906082e-04
15                 -8.5607705752e-02 1.6301935137e-02 1.7591552138e-03 -8.5367724159e-02 9.7580239256e-03 1.9042932585e-03 -2.3998159353e-04 6.5439112113e-03 -1.4513804471e-04
16                 -8.4063795329e-02 1.7168677051e-02 1.7270682951e-03 -8.3805960044e-02 1.0714884158e-02 1.8786181117e-03 -2.5783528432e-04 6.4537928927e-03 -1.5154981663e-04
17                 -8.7985453716e-02 1.8610675845e-02 3.0791355494e-03 -8.7744782431e-02 1.2283424554e-02 3.2214147879e-03 -2.4067128508e-04 6.3272512913e-03 -1.4227923854e-04
18                 -9.2897572881e-02 1.7405744377e-02 3.3423474626e-03 -9.2617313069e-02 1.1287974493e-02 3.4890362678e-03 -2.8025981238e-04 6.1177698842e-03 -1.4668880524e-04
19                 -9.2925135584e-02 1.5871422428e-02 2.7043344537e-03 -9.2662051776e-02 9.9542140145e-03 2.8427336135e-03 -2.6308380811e-04 5.9172084135e-03 -1.3839915982e-04
20                 -9.1667285146e-02 1.6240727341e-02 1.9499852781e-03 -9.1385508908e-02 1.0391562087e-02 2.0960344275e-03 -2.8177623777e-04 5.8491652546e-03 -1.4604914938e-04
21                 -9.1663123067e-02 1.8151416070e-02 2.2850736080e-03 -9.1406376872e-02 1.2313867420e-02 2.4271081970e-03 -2.5674619409e-04 5.8375486499e-03 -1.4203458897e-04
22                 -9.4920199188e-02 1.8287099092e-02 2.8252537617e-03 -9.4633104974e-02 1.2512495827e-02 2.9724973007e-03 -2.8709421399e-04 5.7746032652e-03 -1.4724353907e-04
23                 -9.7592531907e-02 1.6944626328e-02 3.1438746742e-03 -9.7325882180e-02 1.1357590390e-02 3.2823097496e-03 -2.6664972700e-04 5.5870359382e-03 -1.3843507545e-04
24                 -9.8910869856e-02 1.5778836460e-02 2.7871644356e-03 -9.8612609181e-02 1.0361296187e-02 2.9305376306e-03 -2.9826067570e-04 5.4175402733e-03 -1.4337319502e-04
25                 -9.9162518108e-02 1.6556998772e-02 2.6177748458e-03 -9.8884043161e-02 1.1194719047e-02 2.7575642085e-03 -2.7847494733e-04 5.3622797247e-03 -1.3978936273e-04
26                 -9.9897373300e-02 1.7584100955e-02 2.3791123960e-03 -9.9598073951e-02 1.2206852970e-02 2.5258590923e-03 -2.9929934960e-04 5.3772479852e-03 -1.4674669623e-04
27                 -1.0043286790e-01 1.7994246382e-02 2.5163021281e-03 -1.0016009888e-01 1.2639648211e-02 2.6569123167e-03 -2.7276901972e-04 5.3545981709e-03 -1.4061018856e-04
28                 -1.0131843975e-01 1.7192453804e-02 2.4054039071e-03 -1.0101794467e-01 1.1933056430e-02 2.5516814013e-03 -3.0049508211e-04 5.2593973743e-03 -1.4627749415e-04
29                 -1.0208078856e-01 1.6760850139e-02 2.4836902779e-03 -1.0179738820e-01 1.1609811771e-02 2.6250569660e-03 -2.8340036350e-04 5.1510383682e-03 -1.4136668812e-04
30                 -1.0334033411e-01 1.6724186904e-02 2.3473512171e-03 -1.0303354509e-01 1.1633956912e-02 2.4939513012e-03 -3.0678901840e-04 5.0902299915e-03 -1.4660008407e-04
31                 -1.0350926550e-01 1.7303126273e-02 2.3550087462e-03 -1.0322562508e-01 1.2230697868e-02 2.4958409553e-03 -2.8364042509e-04 5.0724284044e-03 -1.4083220919e-04
32                 -1.0414305431e-01 1.7404098830e-02 2.1673306470e-03 -1.0383726029e-01 1.2346133015e-02 2.3144836807e-03 -3.0579401513e-04 5.0579658146e-03 -1.4715303364e-04
33                 -1.0415037997e-01 1.7428697045e-02 2.1469625871e-03 -1.0386156498e-01 1.2403260157e-02 2.2892036431e-03 -2.8881499339e-04 5.0254368884e-03 -1.4224105594e-04
34                 -1.0463089658e-01 1.7102249280e-02 1.9563106939e-03 -1.0431955726e-01 1.2121474278e-02 2.1026973016e-03 -3.1133932387e-04 4.9807750022e-03 -1.4638660761e-04
35                 -1.0419714441e-01 1.7173444815e-02 1.9261690688e-03 -1.0390362393e-01 1.2236837063e-02 2.0658861908e-03 -2.9352047812e-04 4.9366077519e-03 -1.3971712195e-04
36                 -1.0445507420e-01 1.7121299587e-02 1.7389985845e-03 -1.0413962261e-01 1.2215193955e-02 1.8839642608e-03 -3.1545158471e-04 4.9061056313e-03 -1.4496567626e-04
37                 -1.0402951820e-01 1.7301500360e-02 1.7255061031e-03 -1.0373133288e-01 1.2414969068e-02 1.8652737197e-03 -2.9818532152e-04 4.8865312914e-03 -1.3976761663e-04
38                 -1.0432484734e-01 1.7177735164e-02 1.5824218613e-03 -1.0400692432e-01 1.2307340832e-02 1.7274010696e-03 -3.1792301849e-04 4.8703943316e-03 -1.4497920830e-04
39                 -1.0369711546e-01 1.7278275387e-02 1.5685208747e-03 -1.0339725414e-01 1.2428483850e-02 1.7069110077e-03 -2.9986132482e-04 4.8497915377e-03 -1.3839013298e-04
40                 -1.0381990179e-01 1.7139583668e-02 1.4022235520e-03 -1.0350005550e-01 1.2312266850e-02 1.5453949606e-03 -3.1984629344e-04 4.8273168188e-03 -1.4317140856e-04
41                 -1.0310373398e-01 1.7238399365e-02 1.3914333192e-03 -1.0279770684e-01 1.2428503953e-02 1.5292585922e-03 -3.0602713618e-04 4.8098954121e-03 -1.3782527301e-04
42                 -1.0318817836e-01 1.7105390344e-02 1.2416948029e-03 -1.0286311801e-01 1.2308338535e-02 1.3845751894e-03 -3.2506035015e-04 4.7970518085e-03 -1.4288038648e-04
43                 -1.0236709784e-01 1.7209815703e-02 1.2319839649e-03 -1.0206026617e-01 1.2423102598e-02 1.3681228744e-03 -3.0683167652e-04 4.7867131048e-03 -1.3613890944e-04
44                 -1.0230252483e-01 1.7062857609e-02 1.0688071109e-03 -1.0197677303e-01 1.2292254015e-02 1.2097134430e-03 -3.2575179769e-04 4.7706035943e-03 -1.4090633210e-04
45                 -1.0131994993e-01 1.7165777476e-02 1.0507808780e-03 -1.0100871664e-01 1.2401040930e-02 1.1862712526e-03 -3.1123328736e-04 4.7647365460e-03 -1.3549037452e-04
46                 -1.0116837186e-01 1.7002610477e-02 8.8137189678e-04 -1.0083931206e-01 1.2249237458e-02 1.0213513896e-03 -3.2905980239e-04 4.7533730186e-03 -1.3997949279e-04
47                 -1.0006792935e-01 1.7106349931e-02 8.6463937821e-04 -9.9754866349e-02 1.2355487213e-02 9.9838735112e-04 -3.1306299866e-04 4.7508627183e-03 -1.3374797291e-04
48                 -9.9805423394e-02 1.6935197228e-02 6.8824484381e-04 -9.9473846298e-02 1.2195303489e-02 8.2627272012e-04 -3.3157709628e-04 4.7398937389e-03 -1.3802787631e-04
49                 -9.8575904827e-02 1.7039627767e-02 6.6976674595e-04 -9.8260901053e-02 1.2299306135e-02 8.0186430901e-04 -3.1500377367e-04 4.7403216322e-03 -1.3209756306e-04
50                 -9.8208088177e-02 1.6855489614e-02 5.0166575762e-04 -9.7873933366e-02 1.2124574731e-02 6.3824633351e-04 -3.3415481119e-04 4.7309148831e-03 -1.3658057588e-04
51                 -9.6889210468e-02 1.6955154842e-02 4.9728791195e-04 -9.6571267020e-02 1.2223441726e-02 6.2762506354e-04 -3.1794344815e-04 4.7317131159e-03 -1.3033715159e-04
52                 -9.6469954255e-02 1.6790046284e-02 3.3739777656e-04 -9.6133878784e-02 1.2065719536e-02 4.7189035472e-04 -3.3607547095e-04 4.7243267484e-03 -1.3449257815e-04
53                 -9.5121372598e-02 1.6899315659e-02 3.4021325278e-04 -9.4801453427e-02 1.2174373965e-02 4.6906712771e-04 -3.1991917076e-04 4.7249416938e-03 -1.2885387494e-04
54                 -9.4698638593e-02 1.6715613641e-02 2.0371569954e-04 -9.4359667115e-02 1.1998921152e-02 3.3707123178e-04 -3.3897147768e-04 4.7166924887e-03 -1.3335553224e-04
55                 -9.3359821078e-02 1.6809276555e-02 2.3643077764e-04 -9.3038661734e-02 1.2088759871e-02 3.6360153336e-04 -3.2115934471e-04 4.7205166832e-03 -1.2717075573e-04
56                 -9.2977108098e-02 1.6655384137e-02 1.1533939157e-04 -9.2639752395e-02 1.1940262799e-02 2.4659652799e-04 -3.3735570235e-04 4.7151213378e-03 -1.3125713643e-04
57                 -9.1652914047e-02 1.6792133999e-02 1.6764038510e-04 -9.1333545904e-02 1.2073787222e-02 2.9290826028e-04 -3.1936814314e-04 4.7183467771e-03 -1.2526787518e-04
58                 -9.1320392918e-02 1.6609690649e-02 6.1837486901e-05 -9.0983127196e-02 1.1898517929e-02 1.9182871769e-04 -3.3726572148e-04 4.7111727194e-03 -1.2999123078e-04
59                 -9.0109857384e-02 1.6711186204e-02 1.1571900710e-04 -8.9787831517e-02 1.1998542827e-02 2.4001790777e-04 -3.2202586725e-04 4.7126433763e-03 -1.2429890067e-04
60                 -8.9806608941e-02 1.6564194183e-02 3.2065305531e-05 -8.9469203650e-02 1.1854182621e-02 1.6075431813e-04 -3.3740529102e-04 4.7100115616e-03 -1.2868901259e-04
61                 -8.8627496876e-02 1.6695896834e-02 1.0159291074e-04 -8.8308561839e-02 1.1983015588e-02 2.2424280083e-04 -3.1893503679e-04 4.7128812457e-03 -1.2264989010e-04
62                 -8.8406338831e-02 1.6549687122e-02 2.2835424957e-05 -8.8070585827e-02 1.1841987033e-02 1.5034038926e-04 -3.3575300455e-04 4.7077000885e-03 -1.2750496430e-04
63                 -8.7329803050e-02 1.6650857885e-02 9.3763116933e-05 -8.7010117935e-02 1.1941339072e-02 2.1561248232e-04 -3.1968511570e-04 4.7095188136e-03 -1.2184936539e-04
64                 -8.7170736898e-02 1.6504867898e-02 1.8769284762e-05 -8.6836984568e-02 1.1799637317e-02 1.4476718085e-04 -3.3375233005e-04 4.7052305810e-03 -1.2599789609e-04
65                 -8.6071749847e-02 1.6630580584e-02 1.0372475560e-04 -8.5753864171e-02 1.1923682104e-02 2.2456711415e-04 -3.1788567588e-04 4.7068984803e-03 -1.2084235855e-04
66                 -8.5989780941e-02 1.6478028884e-02 2.9994778712e-05 -8.5654658623e-02 1.1775445205e-02 1.5572366102e-04 -3.3512231835e-04 4.7025836783e-03 -1.2572888230e-04
67                 -8.5004808797e-02 1.6590932574e-02 1.0899741622e-04 -8.4686772394e-02 1.1886874135e-02 2.2892520873e-04 -3.1803640331e-04 4.7040584386e-03 -1.1992779251e-04
68                 -8.4946712833e-02 1.6454885652e-02 4.2064636012e-05 -8.4612723884e-02 1.1754785691e-02 1.6668149900e-04 -3.3398894867e-04 4.7000999609e-03 -1.2461686299e-04
69                 -8.3974457415e-02 1.6600706245e-02 1.4108700006e-04 -8.3657791188e-02 1.1898937924e-02 2.6025562038e-04 -3.1666622663e-04 4.7017683210e-03 -1.1916862031e-04
70                 -8.4020902933e-02 1.6438944448e-02 7.6302075492e-05 -8.3687462431e-02 1.1741485378e-02 2.0039675129e-04 -3.3344050170e-04 4.6974590696e-03 -1.2409467580e-04
71                 -8.3161087145e-02 1.6555357846e-02 1.6496873873e-04 -8.2844691863e-02 1.1857924526e-02 2.8341625680e-04 -3.1639528177e-04 4.6974333193e-03 -1.1844751807e-04
72                 -8.3216704294e-02 1.6428296865e-02 1.0358163461e-04 -8.2884664174e-02 1.1733990125e-02 2.2678132973e-04 -3.3204012027e-04 4.6943067397e-03 -1.2319969512e-04
73                 -8.2353691444e-02 1.6569630141e-02 2.0304077497e-04 -8.2039023662e-02 1.1873209625e-02 3.2093279049e-04 -3.1466778205e-04 4.6964205161e-03 -1.1789201552e-04
74                 -8.2516132374e-02 1.6416636837e-02 1.4111725365e-04 -8.2185405203e-02 1.1724252215e-02 2.6396739941e-04 -3.3072717089e-04 4.6923846223e-03 -1.2285014575e-04
75                 -8.1717905155e-02 1.6550885525e-02 2.4149365691e-04 -8.1404682896e-02 1.1857360789e-02 3.5859754607e-04 -3.1322225823e-04 4.6935247356e-03 -1.1710388916e-04
76                 -8.1856608514e-02 1.6413317908e-02 1.7735260087e-04 -8.1526380185e-02 1.1723186517e-02 2.9965913300e-04 -3.3022832922e-04 4.6901313910e-03 -1.2230653213e-04
77                 -8.1101657158e-02 1.6542203443e-02 2.7238089368e-04 -8.0788539778e-02 1.1852195938e-02 3.8943380950e-04 -3.1311738085e-04 4.6900075049e-03 -1.1705291583e-04
78                 -8.1308231345e-02 1.6412254290e-02 2.1601516559e-04 -8.0978650200e-02 1.1725524754e-02 3.3805579775e-04 -3.2958114587e-04 4.6867295362e-03 -1.2204063216e-04
79                 -8.0588429260e-02 1.6532690931e-02 3.1368847933e-04 -8.0276209875e-02 1.1843865925e-02 4.3012977883e-04 -3.1221938528e-04 4.6888250060e-03 -1.1644129949e-04
80                 -8.0826108911e-02 1.6395955034e-02 2.5084093107e-04 -8.0497518730e-02 1.1712105021e-02 3.7234129541e-04 -3.2859018080e-04 4.6838500133e-03 -1.2150036434e-04
81                 -8.0112899958e-02 1.6537777111e-02 3.4662037871e-04 -7.9800601696e-02 1.1852641012e-02 4.6290876848e-04 -3.1229826271e-04 4.6851360986e-03 -1.1628838977e-04
82                 -8.0391433709e-02 1.6396370802e-02 2.7428336463e-04 -8.0062498961e-02 1.1713439010e-02 3.9574450445e-04 -3.2893474733e-04 4.6829317919e-03 -1.2146113981e-04
83                 -7.9688567328e-02 1.6532874531e-02 3.7263612913e-04 -7.9377728102e-02 1.1849304954e-02 4.8823290946e-04 -3.1083922535e-04 4.6835695773e-03 -1.1559678033e-04
84                 -7.9966312701e-02 1.6390129526e-02 3.0603231863e-04 -7.9637836441e-02 1.1711920231e-02 4.2707804269e-04 -3.2847626077e-04 4.6782092950e-03 -1.2104572407e-04
85                 -7.9308226849e-02 1.6520523683e-02 3.9731759903e-04 -7.8996708094e-02 1.1839201136e-02 5.1310377665e-04 -3.1151875504e-04 4.6813225472e-03 -1.1578617761e-04
86                 -7.9610825282e-02 1.6390914413e-02 3.2930856764e-04 -7.9283011624e-02 1.1713498622e-02 4.5008507577e-04 -3.2781365734e-04 4.6774157914e-03 -1.2077650812e-04
87                 -7.8944701935e-02 1.6529032653e-02 4.2175601638e-04 -7.8633227757e-02 1.1850412704e-02 5.3702880762e-04 -3.1147417842e-04 4.6786199483e-03 -1.1527279124e-04
88                 -7.9258340179e-02 1.6380751234e-02 3.4584299592e-04 -7.8930155571e-02 1.1705063409e-02 4.6633739436e-04 -3.2818460861e-04 4.6756878246e-03 -1.2049439844e-04
89                 -7.8604100460e-02 1.6510124540e-02 4.3499345151e-04 -7.8292256238e-02 1.1834344157e-02 5.5055067630e-04 -3.1184422213e-04 4.6757803828e-03 -1.1555722479e-04
90                 -7.8926839731e-02 1.6380650243e-02 3.6809738641e-04 -7.8597922007e-02 1.1707875964e-02 4.8867459183e-04 -3.2891772423e-04 4.6727742784e-03 -1.2057720542e-04
91                 -7.8312444558e-02 1.6514770874e-02 4.5422665669e-04 -7.8002246677e-02 1.1839646595e-02 5.6893373501e-04 -3.1019788096e-04 4.6751242791e-03 -1.1470707833e-04
92                 -7.8630398911e-02 1.6371212718e-02 3.8380609959e-04 -7.8302630207e-02 1.1699526924e-02 5.0389589014e-04 -3.2776870425e-04 4.6716857940e-03 -1.2008979054e-04
93                 -7.8022741102e-02 1.6520136512e-02 4.7070235901e-04 -7.7712627078e-02 1.1847099809e-02 5.8555178039e-04 -3.1011402353e-04 4.6730367029e-03 -1.1484942139e-04
94                 -7.8349560462e-02 1.6368696190e-02 3.9544989106e-04 -7.8021794603e-02 1.1697879044e-02 5.1561129451e-04 -3.2776585906e-04 4.6708171463e-03 -1.2016140345e-04
95                 -7.7714434110e-02 1.6497910747e-02 4.7944626973e-04 -7.7404520986e-02 1.1826393235e-02 5.9398237013e-04 -3.0991312323e-04 4.6715175122e-03 -1.1453610039e-04
96                 -7.8054034871e-02 1.6369144318e-02 4.0239986644e-04 -7.7726154058e-02 1.1701868891e-02 5.2239028713e-04 -3.2788081321e-04 4.6672754270e-03 -1.1999042069e-04
97                 -7.7446323676e-02 1.6496703978e-02 4.8260430238e-04 -7.7136399388e-02 1.1825746790e-02 5.9717753163e-04 -3.0992428791e-04 4.6709571882e-03 -1.1457322925e-04
98                 -7.7789944416e-02 1.6357454766e-02 4.0882780613e-04 -7.7463424289e-02 1.1688815974e-02 5.2851128432e-04 -3.2652012679e-04 4.6686387915e-03 -1.1968347819e-04
99                 -7.7189158267e-02 1.6500321379e-02 4.9723135731e-04 -7.6879705990e-02 1.1829697178e-02 6.1138283598e-04 -3.0945227673e-04 4.6706242006e-03 -1.1415147867e-04
100                -7.7545144574e-02 1.6356079332e-02 4.1920409909e-04 -7.7217994574e-02 1.1689031159e-02 5.3889919956e-04 -3.2715000062e-04 4.6670481729e-03 -1.1969510047e-04
101                -7.6952386030e-02 1.6490578598e-02 5.0609698554e-04 -7.6642122807e-02 1.1821174030e-02 6.2062743390e-04 -3.1026322257e-04 4.6694045678e-03 -1.1453044836e-04
102                -7.7358352440e-02 1.6347455781e-02 4.2679241632e-04 -7.7031434655e-02 1.1681538927e-02 5.4659912634e-04 -3.2691778427e-04 4.6659168548e-03 -1.1980671002e-04
103                -7.6768865953e-02 1.6488772832e-02 5.1141354290e-04 -7.6460238933e-02 1.1818659662e-02 6.2545761017e-04 -3.0862701994e-04 4.6701131699e-03 -1.1404406727e-04
104                -7.7145203840e-02 1.6352028025e-02 4.3502078063e-04 -7.6820120647e-02 1.1684978426e-02 5.5436112616e-04 -3.2508319286e-04 4.6670495996e-03 -1.1934034553e-04
105                -7.6598181552e-02 1.6495450735e-02 5.2119454636e-04 -7.6289398549e-02 1.1825392873e-02 6.3552217254e-04 -3.0878300331e-04 4.6700578613e-03 -1.1432762619e-04
106                -7.7016841814e-02 1.6352488503e-02 4.4721409110e-04 -7.6691712435e-02 1.1686450404e-02 5.6673862219e-04 -3.2512937956e-04 4.6660380991e-03 -1.1952453109e-04
107                -7.6466385319e-02 1.6477567468e-02 5.3312397562e-04 -7.6157261072e-02 1.1810578962e-02 6.4745693081e-04 -3.0912424748e-04 4.6669885063e-03 -1.1433295519e-04
108                -7.6897250148e-02 1.6354294755e-02 4.5766290776e-04 -7.6572507882e-02 1.1690530622e-02 5.7696061615e-04 -3.2474226606e-04 4.6637641335e-03 -1.1929770839e-04
109                -7.6376282809e-02 1.6483453623e-02 5.3761712339e-04 -7.6067837196e-02 1.1815340756e-02 6.5192969618e-04 -3.0844561345e-04 4.6681128667e-03 -1.1431257279e-04
110                -7.6799939289e-02 1.6351557871e-02 4.6569699248e-04 -7.6475746808e-02 1.1687092425e-02 5.8507559559e-04 -3.2419248089e-04 4.6644654458e-03 -1.1937860311e-04
111                -7.6290432456e-02 1.6482045101e-02 5.5059283723e-04 -7.5982384673e-02 1.1815790608e-02 6.6453747634e-04 -3.0804778359e-04 4.6662544925e-03 -1.1394463912e-04
112                -7.6719006688e-02 1.6355966470e-02 4.7275903485e-04 -7.6394161895e-02 1.1692527778e-02 5.9196111166e-04 -3.2484479328e-04 4.6634386920e-03 -1.1920207681e-04
113                -7.6219979018e-02 1.6479745370e-02 5.5259501738e-04 -7.5910927524e-02 1.1813971664e-02 6.6676463555e-04 -3.0905149430e-04 4.6657737058e-03 -1.1416961817e-04
114                -7.6659105980e-02 1.6343755023e-02 4.7605410379e-04 -7.6333623541e-02 1.1680529557e-02 5.9548246729e-04 -3.2548243951e-04 4.6632254656e-03 -1.1942836350e-04
115                -7.6142860993e-02 1.6474115245e-02 5.5919215956e-04 -7.5834893998e-02 1.1807928092e-02 6.7283135507e-04 -3.0796699558e-04 4.6661871527e-03 -1.1363919551e-04
116                -7.6569001539e-02 1.6344128696e-02 4.8142719916e-04 -7.6244640468e-02 1.1681287408e-02 6.0044523249e-04 -3.2436107027e-04 4.6628412880e-03 -1.1901803332e-04
117                -7.6101195310e-02 1.6484693220e-02 5.6386620221e-04 -7.5793130803e-02 1.1819887922e-02 6.7773895270e-04 -3.0806450692e-04 4.6648052985e-03 -1.1387275050e-04
118                -7.6570469526e-02 1.6346598217e-02 4.8822538748e-04 -7.6245752003e-02 1.1683385550e-02 6.0737696516e-04 -3.2471752301e-04 4.6632126674e-03 -1.1915157769e-04
119                -7.6067929740e-02 1.6479701317e-02 5.7481890660e-04 -7.5759368143e-02 1.1815411595e-02 6.8861227889e-04 -3.0856159652e-04 4.6642897220e-03 -1.1379337229e-04
120                -7.6548230475e-02 1.6349957968e-02 4.9691419384e-04 -7.6222676838e-02 1.1688217791e-02 6.1613548034e-04 -3.2555363691e-04 4.6617401766e-03 -1.1922128650e-04
121                -7.6070132677e-02 1.6484433752e-02 5.7489687875e-04 -7.5762647135e-02 1.1819771186e-02 6.8871248886e-04 -3.0748554206e-04 4.6646625666e-03 -1.1381561011e-04
122                -7.6520260030e-02 1.6347555937e-02 5.0170702491e-04 -7.6195273436e-02 1.1685704051e-02 6.2090046695e-04 -3.2498659436e-04 4.6618518862e-03 -1.1919344204e-04
123                -7.6057076019e-02 1.6483812968e-02 5.8164867538e-04 -7.5749879390e-02 1.1821372753e-02 6.9505417901e-04 -3.0719662961e-04 4.6624402147e-03 -1.1340550363e-04
124                -7.6510939255e-02 1.6349719114e-02 5.0301221808e-04 -7.6185628519e-02 1.1689012326e-02 6.2215843242e-04 -3.2531073608e-04 4.6607067881e-03 -1.1914621435e-04
125                -7.6022142020e-02 1.6483284823e-02 5.8710317230e-04 -7.5713786665e-02 1.1820579209e-02 7.0107057073e-04 -3.0835535517e-04 4.6627056139e-03 -1.1396739844e-04
126                -7.6539341664e-02 1.6349667301e-02 5.0818499846e-04 -7.6213877574e-02 1.1689962468e-02 6.2751553923e-04 -3.2546409033e-04 4.6597048330e-03 -1.1933054077e-04
127                -7.6045682161e-02 1.6485848777e-02 5.9367628704e-04 -7.5738939972e-02 1.1824143748e-02 7.0711758776e-04 -3.0674218895e-04 4.6617050286e-03 -1.1344130071e-04
128                -7.6514743950e-02 1.6346956856e-02 5.1342135950e-04 -7.6189863255e-02 1.1687002724e-02 6.3261669333e-04 -3.2488069518e-04 4.6599541321e-03 -1.1919533383e-04
129                -7.6034803619e-02 1.6492404084e-02 5.9332048791e-04 -7.5728103115e-02 1.1829766095e-02 7.0707457188e-04 -3.0670050407e-04 4.6626379890e-03 -1.1375408398e-04
130                -7.6502073604e-02 1.6349770770e-02 5.0881466692e-04 -7.6177370531e-02 1.1688059909e-02 6.2828573229e-04 -3.2470307243e-04 4.6617108616e-03 -1.1947106537e-04
131                -7.5994073134e-02 1.6481754478e-02 5.9023230120e-04 -7.5687975933e-02 1.1819726884e-02 7.0376379016e-04 -3.0609720067e-04 4.6620275936e-03 -1.1353148897e-04
132                -7.6448470308e-02 1.6349934308e-02 5.0880514422e-04 -7.6123225597e-02 1.1689565214e-02 6.2826308154e-04 -3.2524471087e-04 4.6603690940e-03 -1.1945793732e-04
133                -7.5952283771e-02 1.6482454743e-02 5.8808861784e-04 -7.5645568417e-02 1.1818702393e-02 7.0194804118e-04 -3.0671535447e-04 4.6637523503e-03 -1.1385942335e-04
134                -7.6411414388e-02 1.6349670218e-02 5.0800141701e-04 -7.6087501616e-02 1.1688139984e-02 6.2732528447e-04 -3.2391277193e-04 4.6615302343e-03 -1.1932386746e-04
135                -7.5906603915e-02 1.6476857508e-02 5.8975860829e-04 -7.5600135000e-02 1.1815025536e-02 7.0327987680e-04 -3.0646891516e-04 4.6618319719e-03 -1.1352126851e-04
136                -7.6356630522e-02 1.6347540549e-02 5.0506691406e-04 -7.6031799988e-02 1.1688538824e-02 6.2428092927e-04 -3.2483053395e-04 4.6590017252e-03 -1.1921401520e-04
137                -7.5844134139e-02 1.6474718106e-02 5.8864469873e-04 -7.5536321200e-02 1.1813780648e-02 7.0254590385e-04 -3.0781293863e-04 4.6609374584e-03 -1.1390120511e-04
138                -7.6326685478e-02 1.6337248728e-02 5.0986539167e-04 -7.6000742813e-02 1.1678877757e-02 6.2932465135e-04 -3.2594266504e-04 4.6583709711e-03 -1.1945925968e-04
139                -7.5838249123e-02 1.6469896895e-02 5.8994053067e-04 -7.5531066514e-02 1.1808985990e-02 7.0346970993e-04 -3.0718260930e-04 4.6609109057e-03 -1.1352917927e-04
140                -7.6319194984e-02 1.6345054825e-02 5.0579812672e-04 -7.5995167499e-02 1.1686707558e-02 6.2470422842e-04 -3.2402748465e-04 4.6583472671e-03 -1.1890610169e-04
141                -7.5814655151e-02 1.6483976982e-02 5.9010605580e-04 -7.5507755358e-02 1.1823005142e-02 7.0374541068e-04 -3.0689979322e-04 4.6609718399e-03 -1.1363935488e-04
142                -7.6292230549e-02 1.6337416259e-02 5.0928554969e-04 -7.5967190648e-02 1.1678634504e-02 6.2854752933e-04 -3.2503990131e-04 4.6587817544e-03 -1.1926197964e-04
143                -7.5822703028e-02 1.6461825074e-02 5.8796001478e-04 -7.5515476353e-02 1.1802946404e-02 7.0154348159e-04 -3.0722667504e-04 4.6588786705e-03 -1.1358346682e-04
144                -7.6285798207e-02 1.6343494180e-02 5.0488434702e-04 -7.5960721640e-02 1.1685398037e-02 6.2411209237e-04 -3.2507656684e-04 4.6580961438e-03 -1.1922774534e-04
145                -7.5791480688e-02 1.6475067071e-02 5.8127358900e-04 -7.5485234061e-02 1.1813318026e-02 6.9483223435e-04 -3.0624662687e-04 4.6617490447e-03 -1.1355864535e-04
146                -7.6236475061e-02 1.6331893663e-02 5.0370226549e-04 -7.5912549296e-02 1.1672119267e-02 6.2292299958e-04 -3.2392576432e-04 4.6597743953e-03 -1.1922073410e-04
147                -7.5771977345e-02 1.6472478047e-02 5.8093956283e-04 -7.5466718617e-02 1.1811759108e-02 6.9415733292e-04 -3.0525872785e-04 4.6607189396e-03 -1.1321777010e-04
148                -7.6205899420e-02 1.6336510760e-02 5.0000902896e-04 -7.5881797930e-02 1.1678808336e-02 6.1910260980e-04 -3.2410149034e-04 4.6577024238e-03 -1.1909358084e-04
149                -7.5721212157e-02 1.6469968223e-02 5.7982544999e-04 -7.5413766899e-02 1.1809481712e-02 6.9361120692e-04 -3.0744525874e-04 4.6604865113e-03 -1.1378575693e-04
150                -7.6197705342e-02 1.6337283877e-02 5.0673570118e-04 -7.5871683773e-02 1.1679130311e-02 6.2624842836e-04 -3.2602156932e-04 4.6581535661e-03 -1.1951272718e-04
151                -7.5757966326e-02 1.6471616957e-02 5.8529365072e-04 -7.5450749236e-02 1.1810861633e-02 6.9873384251e-04 -3.0721708971e-04 4.6607553234e-03 -1.1344019179e-04
152                -7.6216998687e-02 1.6344566398e-02 5.0907377442e-04 -7.5893280768e-02 1.1687608995e-02 6.2797191331e-04 -3.2371791897e-04 4.6569574029e-03 -1.1889813889e-04
153                -7.5775430501e-02 1.6471926840e-02 5.8867067056e-04 -7.5468004640e-02 1.1812508609e-02 7.0236268612e-04 -3.0742586092e-04 4.6594182306e-03 -1.1369201556e-04
154                -7.6238096276e-02 1.6347253991e-02 5.1816060471e-04 -7.5913679406e-02 1.1688789040e-02 6.3727608405e-04 -3.2441687020e-04 4.6584649509e-03 -1.1911547934e-04
155                -7.5812307929e-02 1.6474709365e-02 5.9520724500e-04 -7.5504630290e-02 1.1815958074e-02 7.0877256269e-04 -3.0767763872e-04 4.6587512911e-03 -1.1356531769e-04
156                -7.6300846035e-02 1.6347541206e-02 5.1716601055e-04 -7.5975180144e-02 1.1692025302e-02 6.3645762025e-04 -3.2566589109e-04 4.6555159043e-03 -1.1929160971e-04
157                -7.5860384665e-02 1.6473343594e-02 5.9518271865e-04 -7.5552749559e-02 1.1814478786e-02 7.0893919278e-04 -3.0763510581e-04 4.6588648085e-03 -1.1375647413e-04
158                -7.6324134136e-02 1.6343934880e-02 5.2284569505e-04 -7.6000348906e-02 1.1686019188e-02 6.4190039886e-04 -3.2378522968e-04 4.6579156915e-03 -1.1905470381e-04
159                -7.5902861799e-02 1.6484266091e-02 5.9732226017e-04 -7.5596905322e-02 1.1824445657e-02 7.1052719241e-04 -3.0595647690e-04 4.6598204334e-03 -1.1320493224e-04
160                -7.6379006061e-02 1.6356391407e-02 5.1317156827e-04 -7.6055214833e-02 1.1699021319e-02 6.3211095543e-04 -3.2379122727e-04 4.6573700882e-03 -1.1893938716e-04
161                -7.5902803126e-02 1.6484260488e-02 5.9507866576e-04 -7.5594738558e-02 1.1825577122e-02 7.0895630715e-04 -3.0806456806e-04 4.6586833657e-03 -1.1387764139e-04
162                -7.6404540167e-02 1.6339603451e-02 5.1964829352e-04 -7.6077921186e-02 1.1683242960e-02 6.3914001161e-04 -3.2661898170e-04 4.6563604914e-03 -1.1949171809e-04
163                -7.5962864369e-02 1.6473751941e-02 5.9559070784e-04 -7.5656061143e-02 1.1813357383e-02 7.0901006621e-04 -3.0680322656e-04 4.6603945578e-03 -1.1341935837e-04
164                -7.6404678285e-02 1.6348845324e-02 5.1251643742e-04 -7.6081333617e-02 1.1690739299e-02 6.3135014321e-04 -3.2334466816e-04 4.6581060251e-03 -1.1883370579e-04
165                -7.5909613445e-02 1.6495926360e-02 5.9388383330e-04 -7.5602862280e-02 1.1835452842e-02 7.0744523042e-04 -3.0675116468e-04 4.6604735174e-03 -1.1356139711e-04
166                -7.6377597626e-02 1.6348822571e-02 5.1856063577e-04 -7.6052423591e-02 1.1690437128e-02 6.3784279818e-04 -3.2517403511e-04 4.6583854428e-03 -1.1928216241e-04
167                -7.5914005049e-02 1.6470106979e-02 5.9783064662e-04 -7.5606064694e-02 1.1811564574e-02 7.1154865166e-04 -3.0794035457e-04 4.6585424054e-03 -1.1371800505e-04
168                -7.6377190568e-02 1.6353259099e-02 5.1817202526e-04 -7.6051313587e-02 1.1697075852e-02 6.3744805630e-04 -3.2587698114e-04 4.6561832464e-03 -1.1927603104e-04
169                -7.5909596583e-02 1.6485381053e-02 5.9655827418e-04 -7.5602697438e-02 1.1826491202e-02 7.1006945387e-04 -3.0689914446e-04 4.6588898506e-03 -1.1351117969e-04