/*--------------------------------*- C++ -*----------------------------------*\
| =========                 |                                                 |
| \\      /  F ield         | OpenFOAM: The Open Source CFD Toolbox           |
|  \\    /   O peration     | Version:  2406                                  |
|   \\  /    A nd           | Website:  www.openfoam.com                      |
|    \\/     M anipulation  |                                                 |
\*---------------------------------------------------------------------------*/
FoamFile
{
    version     2.0;
    format      ascii;
    arch        "LSB;label=32;scalar=64";
    class       volScalarField;
    location    "500";
    object      p;
}
// * * * * * * * * * * * * * * * * * * * * * * * * * * * * * * * * * * * * * //

dimensions      [0 2 -2 0 0 0 0];

internalField   nonuniform List<scalar> 
124023
(
0.05549789261
-0.730734692
0.0368705664
-0.135506535
-0.3312995647
-0.2685024764
0.2466466928
0.5798354027
0.1485901808
0.6046593042
0.5796617315
0.2422584563
0.3363470006
0.3592349961
-0.1317105917
-0.4894094556
-1.159309668
-1.199029747
-1.108924173
-1.08212807
-0.5218347527
-0.6309530831
-0.6558649046
-6.42972892
-6.88728188
-4.27183406
3.352009067
-10.45008254
-10.54951916
-9.49497328
-6.92841371
-9.534191113
3.662624957
-3.702511564
1.442522309
0.1710462701
-9.524976394
-9.60787638
5.254604897
5.187663329
-7.539047115
-4.305735381
-7.582729852
3.624301123
0.2100343733
3.597604434
0.2012507813
7.642475255
7.263943734
7.260524901
7.639344089
-10.52756286
-10.53658283
-10.03957802
-8.466980717
-9.495593427
-11.4183996
-8.468614485
-10.02312452
-11.44432447
-10.06150835
-11.48225022
-9.5099173
-8.505532335
-8.492957747
-11.46202208
-10.0744268
-9.588149281
-7.78926224
-7.826965939
-9.601592314
-7.849621434
-7.825268729
-1.737504219
-2.497153165
7.321437651
5.200149241
-1.777182301
-2.467004654
7.352031717
-1.751389015
-2.433136567
5.257127678
7.36555592
-1.691969607
-2.469687681
7.333234793
-6.463025585
-8.986930834
-7.687235292
-8.048690022
-6.905862557
-7.699569526
-8.066731562
-8.975383984
5.026451945
2.687527721
5.095140111
3.350760643
5.092029052
5.011148458
2.711202363
-9.010213826
-6.926085639
-7.731763531
-8.087028533
-7.726269322
-8.081901138
-9.017512868
-6.539201227
-7.549405441
-6.539203001
-4.386520982
-5.239993527
-4.385514752
-5.247202356
-7.566307721
-6.568832692
-6.559810507
-4.408856147
-5.273264676
-5.258084019
-4.412787735
-0.9176502007
-1.122837952
3.606471215
2.010969628
-1.126623661
-0.9110148089
2.009198694
-0.9078242514
-1.107781109
3.626287023
1.997017988
-0.9083086234
-1.12060298
2.012618376
9.905082621
10.70313563
7.643346081
7.645815657
10.70909429
7.64334161
9.896994322
9.902321191
7.644758541
10.70805622
7.639259223
9.907205769
10.71285158
7.642617881
2.080991457
1.04288307
-3.756219346
-0.472634905
-0.5325131295
-6.855937116
-4.250800147
-10.48332499
-9.476599162
-9.525235677
-7.528575591
-10.40006273
-9.985008055
-8.446605483
-9.456090782
-11.42247333
-8.437175852
-11.39658355
-10.00485843
-9.436269914
-7.773243858
-7.719149733
-8.940897516
-7.671615708
-8.029817684
-6.820386594
-7.647554885
-8.958343614
-7.998041005
-6.366342691
-6.524801887
-7.499627374
-6.523790251
-4.385819493
-5.232237846
-5.225251312
-4.375795818
3.346397221
8.801750159
1.964320812
1.231086247
1.240782086
0.9484081926
3.351405297
5.2689459
2.773584533
17.94637466
0.6786505173
15.13781906
14.98378549
12.12760818
13.34970126
17.97489742
14.61381133
13.36483941
12.13115852
14.607284
1.189884795
1.287814447
0.953167547
2.765539949
0.1515041944
1.930784613
1.0274566
1.201517683
1.940938451
2.065273356
-3.396212281
-5.116472053
-8.341756271
-6.040010804
-7.716197986
-5.131028894
-8.74098141
-9.783273494
-8.223423947
-8.062669807
-6.536660831
-7.055985401
-7.175430128
-8.352282935
-7.528468538
-7.531118077
-9.413995079
-8.369640136
-9.444354115
-7.425040239
-9.793025737
-10.18623536
-9.772605461
-9.416844131
-10.17549608
-9.803224803
-9.406740093
-8.213537146
-7.564454573
-8.054913323
-7.846538083
-7.691416298
-7.574563014
-7.841336617
-7.681993741
-8.343169943
-7.984523998
-7.977346232
-7.520807509
-7.669946395
-7.668683738
-8.147142802
-7.519814257
-8.807292562
-7.595956864
-8.802669558
-7.586866052
-8.157330651
-8.617509447
-9.011299699
-9.12509562
-9.424472723
-9.022465287
-9.135393711
-8.606514686
-8.627218769
-9.155512464
-9.434304206
-9.041874584
-9.032051638
-9.14477756
-8.636880113
-8.31428774
-7.639552682
-8.696233882
-8.045759769
-8.34482545
-8.352444652
-8.351794933
-8.056718294
-8.704836901
-5.555256289
-6.054695866
-5.999098803
-5.569451504
-6.574094099
-6.069487407
-7.084322146
-6.637652182
-7.732718686
-7.099374035
-7.164661643
-6.652657625
-9.418087396
-8.732759987
-9.024336383
-9.080644938
-9.425516935
-9.016396606
-9.073184531
-6.808987137
-7.04693335
-6.798088465
-7.136787401
-7.411879345
-7.148181823
-7.405295739
-8.364928969
-8.361460164
-8.724149159
-8.074381147
-8.066273594
-8.716390405
-8.371843659
-8.012059243
-7.621721797
-7.417928637
-7.719448866
-7.710617628
-7.614897526
-8.027566324
-3.560885883
-2.64706836
-4.018057404
-1.115440066
-2.359426195
-1.121407366
0.001821687119
-1.228201374
-4.433828785
-4.420801503
-4.395647259
-3.900793085
-3.922020151
-5.142734098
-4.455954124
-3.165683936
-2.45087988
-3.181022045
-3.576366588
-2.557524443
-2.555389411
-2.452647964
-4.891700133
-4.239332707
-5.326699129
-4.904715781
-4.567199182
-4.248337747
-3.35955465
-2.508718953
-3.6330951
-3.37039142
-2.479263966
-2.486858935
-3.710653905
-4.262207901
-5.634399532
-2.769451098
-8.435962902
-6.725635774
-10.6597865
-8.71299982
-10.84240647
-8.451598253
-6.781082697
-7.174962086
-8.297658088
-11.58499429
-13.10139859
-10.015408
-11.5509478
-10.04248062
-11.09018875
-9.752177832
-9.634611677
-11.05728013
-9.661561351
-13.47795936
-10.11412996
-13.30923716
-11.50928876
-11.57238712
-12.09800245
-11.07902809
-12.08469888
-11.52058354
-11.06818655
-11.94230312
-12.31940934
-12.59092943
-13.1154285
-11.93085611
-12.60461094
-12.33060595
-11.5005107
-11.56350184
-12.06254751
-11.04774644
-11.48898329
-12.07555297
-11.05938455
-10.20075104
-11.07839983
-10.63686716
-10.62249742
-10.61136454
-10.626477
-10.21086694
-9.78388123
-9.385957373
-10.15482407
-9.763366168
-9.772295355
-10.16619822
-9.397451592
-10.19157085
-11.06942805
-10.59048052
-10.60584282
-10.18001098
-10.60221496
-10.61748645
-12.69391261
-12.59443784
-13.49251944
-13.63828515
-12.60548812
-12.68224668
-13.65567085
-12.60341346
-13.32874076
-13.5714129
-12.29124759
-12.5914365
-13.59091046
-12.30330143
-9.671382594
-7.787908435
-9.137028838
-8.449618461
-7.776608797
-11.19883198
-11.44300615
-10.6700112
-10.55714593
-11.18985618
-11.45188133
-10.56720877
-9.052757218
-8.996818543
-9.397604867
-9.406423105
-8.722863278
-9.006675499
-9.061372972
-11.63094104
-11.63956748
-10.85287329
-10.69323421
-10.70419507
-11.64856471
-11.6217928
-9.331180463
-8.390042495
-9.626036557
-8.404699008
-8.466024269
-9.348289232
-7.624358318
-8.81986935
-7.967222974
-7.982097833
-8.836524196
-10.50224595
-10.85057154
-10.24024075
-10.02534334
-10.84149349
-10.51133721
-10.25026491
-10.86257301
-10.53047072
-10.26730919
-10.03530361
-10.87007593
-10.52320231
-10.26021936
-9.366719969
-10.12139971
-9.765448632
-9.774341005
-9.644512484
-10.13042306
-9.376604147
-9.786107896
-10.14935277
-9.654236767
-9.394116647
-10.14219157
-9.793322776
-9.386431416
-11.52067009
-10.5796646
-10.12610351
-11.16686044
-10.59108218
-11.5113297
-11.17624556
-5.330536725
-4.293430859
-3.160920264
-3.919539852
-5.366082062
-3.887436848
-3.183153503
-4.6988608
-4.811718305
-4.784177242
-5.771299244
-5.663524763
-4.728731842
-5.803624553
-1.321420218
-4.821817629
-9.702459078
-12.93277208
-1.95801175
-11.10149086
-12.95586346
-12.42663906
-11.8104192
-11.08503125
-12.45345453
-11.82403085
-6.907227164
-8.168365245
-5.374279633
-5.378916107
-6.899054456
-9.905035841
-8.853225716
-9.714977012
-10.6922222
-8.866982361
-9.895235334
-10.70153057
-3.345325524
-3.368549974
-1.171199212
-1.120182913
-1.923406411
-1.961930149
-0.4593991974
-0.8322145536
-1.471416295
-6.295994028
-4.833058701
-6.246488319
-4.850724576
-0.775278017
-2.161867691
-3.980448576
-2.539999396
-2.454335596
-4.025554608
-0.7734050523
3.331656589
2.629339347
-3.774820613
-2.416622551
-2.153822921
-3.285594472
-2.357766807
-3.809067111
-3.292328131
-0.1171034735
-0.1054873489
0.7309795972
0.7614651299
1.591159005
1.266726579
3.296601723
3.676560423
1.308739491
3.70330724
1.768461514
-0.8680013456
-0.6036521879
0.5176164862
1.215445433
-0.5609116323
-0.769339541
-0.5523352043
0.7625410164
0.3834923047
0.3827557391
0.7784704434
1.694860204
1.328646529
2.622773907
2.984400491
1.324684438
3.000676862
1.71019781
-1.201529796
-0.7613335949
-2.142918869
-3.917241971
-2.437757501
-2.433827143
-3.957302028
-0.7700841192
3.323761241
2.634026671
-3.740688847
-2.335374279
-2.127612837
-3.281748093
-2.341258721
-3.260085563
-3.763372348
-6.282408906
-4.846584031
-4.84271795
-6.299720796
-0.1093372719
-0.1369246128
0.7361430521
0.7579746373
1.69657902
1.275107564
3.341003765
3.641447352
1.32764381
3.719071989
1.775585072
-1.092548454
-0.8366298882
-0.5976071772
0.5245428266
1.218436914
-0.5527368506
-0.7642145989
-0.5566912481
0.7693623444
0.3827292616
0.3865398234
0.76879849
1.718471557
1.329345612
2.640755923
2.971239039
1.331272128
3.007517171
1.702841386
-3.345057576
-6.503756498
-5.790174231
-1.964134226
-2.321828098
-5.964950116
-5.09812857
-5.296242389
-3.990016752
-8.185355214
-7.031561278
-7.139580614
-6.489151347
-8.018678947
-7.004009496
-7.506986775
-8.315601992
-7.470040926
-7.386478679
-7.476494056
-5.663347063
-6.681835959
-4.966490248
-5.772772483
-6.640419493
-5.651849158
-4.953009462
-6.067127043
-7.592257218
-7.538755441
-5.988394964
-8.178515357
-7.539271337
-7.995257413
-7.823419176
-7.657372685
-7.817388223
-7.645557234
-7.544447002
-7.652631858
-7.503153407
-7.642372198
-8.30602401
-7.950403483
-7.940366443
-7.605695933
-7.47974919
-7.616096212
-8.103065048
-7.451430975
-8.763665066
-7.55503612
-8.756662616
-7.538902413
-8.115357965
-6.619964138
-6.487915275
-6.154744401
-6.028470225
-6.468673598
-6.556959738
-6.151775829
-6.995347758
-7.598092275
-6.564971448
-6.601804067
-6.979239033
-6.973789797
-6.295414532
-7.563113528
-6.393623315
-6.949261577
-6.728156754
-5.986624817
-6.4646798
-6.178411609
-6.472504258
-6.175147275
-6.71654864
-6.686647625
-5.665476037
-5.573717638
-7.593737816
-6.011096334
-6.521153626
-5.985675039
-8.19407736
-7.036563574
-7.155520312
-8.03742343
-7.516432325
-8.326391526
-7.396149342
-7.500467885
-5.101328852
-5.587629915
-6.399982672
-6.448584177
-7.001704321
-7.60352838
-6.551612904
-6.990060359
-6.602634177
-6.75664211
-6.014410265
-6.482097418
-6.217838102
-6.761534216
-6.495975007
-6.205934579
-8.207228476
-7.562621988
-8.031871644
-7.826871631
-7.661616612
-7.840248619
-7.675602147
-7.546199361
-7.523876934
-7.664212587
-7.671134841
-8.335757498
-7.962859921
-7.968732982
-8.13702827
-7.492601656
-8.782152272
-7.566380779
-8.785306671
-7.575771566
-8.126817873
-6.535786805
-5.953271546
-6.522995898
-6.017164064
-5.537040872
-5.520044928
-6.034567821
-7.123270573
-6.615104552
-7.107501654
-6.77657396
-7.390652924
-7.02505428
-7.385727541
-6.765649635
-7.115541652
-7.095469048
-7.371375557
-7.005169175
-6.7496355
-7.367255066
-7.099519455
-6.751704461
-7.980098809
-7.682003631
-7.583527159
-7.381018418
-7.675301075
-7.574225963
-7.988733146
-5.723410748
-6.077052161
-5.655318572
-5.296187713
-6.062592749
-5.301754315
-5.70812054
-6.116611701
-6.437006733
-6.67659927
-6.171726441
-6.427950425
-6.165868167
-6.127702943
-6.091974755
-6.104077715
-6.650343259
-6.425032824
-6.423123013
-6.125309878
-6.070917669
-5.744634934
-5.651113274
-6.051438754
-5.320904177
-6.0513542
-5.315469488
-5.75173313
-6.442429043
-6.177035545
-6.131434879
-6.139573211
-6.696178162
-6.184147076
-6.455143712
-6.063372095
-5.325252945
-5.75505391
-5.766617128
-5.674004069
-6.074069674
-5.338728521
-6.558166201
-7.148655898
-6.782139163
-7.393084719
-7.118966028
-7.047951179
-6.794640911
-7.133549244
-7.40782055
-7.690106124
-7.595844239
-7.994407612
-8.008049202
-7.407403207
-7.702608122
-7.601763341
-4.724768866
-4.433149642
-4.110958292
-5.109908606
-4.738301727
-4.443409637
-4.122241249
-5.806375912
-2.523514035
-5.315517516
-3.624405642
-4.981368418
-3.935296537
-2.799636141
-4.540756793
-5.284165596
-4.529048989
-4.208435957
-4.875103077
-4.221637652
-4.858518176
-4.558356277
-2.503418593
-3.653502976
-8.331413808
-6.002868095
-7.692193789
-8.158983082
-7.951821256
-7.123290517
-8.286839282
-9.358746614
-8.287340359
-7.420401068
-9.402712981
-8.300887074
-9.37265915
-7.358054301
-8.70260222
-6.740986334
-7.133839846
-8.274978612
-10.99875206
-8.657080185
-9.696042903
-9.576054466
-11.01530332
-9.74154828
-9.624422046
-8.671658609
-9.71072845
-11.04714065
-9.593484078
-8.163015917
-7.527452636
-8.010023913
-7.80126288
-7.626222782
-7.80760048
-7.639831616
-7.531803954
-8.542825463
-9.070762282
-9.347528774
-8.957947892
-9.05887507
-8.553478257
-8.946482858
-8.295422046
-7.915547363
-7.929381741
-8.094212762
-8.734831755
-7.465952423
-7.515603054
-8.742321656
-7.534167986
-8.080496707
-8.585358157
-9.00137913
-9.393947147
-9.113765666
-9.105201315
-8.990573869
-8.596130573
-8.574800028
-9.083697177
-9.380834666
-8.969293753
-9.092369518
-8.563817199
-8.980344586
-10.11068605
-10.53211238
-10.55011035
-10.98333363
-10.51737183
-10.12453556
-10.53580587
-9.68313544
-9.332170166
-9.319942664
-9.704540368
-10.09727435
-10.08346062
-9.717677006
-10.14913202
-10.54836054
-11.02279126
-10.56198034
-10.55624913
-10.57479919
-10.13657397
-9.376331595
-9.732244971
-9.365053098
-9.751220163
-10.1441994
-10.13462726
-9.762755878
-9.719087991
-9.343480562
-9.355352718
-9.741665292
-10.11289772
-10.12106059
-9.729382734
-10.15871166
-11.03694404
-10.58004558
-10.5964697
-10.57018238
-10.58406821
-10.17050312
-2.716696219
-2.715223236
-10.6491807
-4.228089776
-10.83161757
-8.342271457
-4.792686971
-6.687157945
-11.50963016
-13.09167369
-10.00550586
-10.61662121
-11.54117187
-13.06049926
-9.974686206
-13.46786055
-10.10216931
-10.79723222
-13.43516426
-13.30184561
-9.690273464
-12.92843426
-11.45694537
-11.51641604
-12.02180039
-11.00363951
-12.02755679
-11.01648869
-11.44420145
-11.90609386
-12.30983574
-12.58131547
-13.0802683
-12.57005517
-11.92125369
-12.29332896
-11.46538832
-11.53058874
-12.05286969
-11.03846791
-12.04190095
-11.02526997
-11.47949469
-11.89775767
-12.55067912
-13.06292815
-12.27240485
-12.55483507
-11.8853451
-12.28464541
-12.65245859
-12.58465344
-13.45616755
-13.62919463
-12.56648824
-13.61475445
-12.67218226
-12.64352673
-13.59177367
-13.43619533
-12.54422252
-12.55746044
-13.59057845
-12.6282629
-12.56156459
-13.28522238
-13.56414086
-12.27815315
-13.54770174
-12.26312361
-12.58028074
-11.05266658
-12.90560295
-12.42817898
-11.79577831
-12.39772861
-11.7829837
-11.06837072
-8.324340068
-8.683388541
-8.036792238
-8.322048971
-8.029165564
-8.675530416
-8.331651815
-7.649440342
-7.675716567
-7.060654984
-7.108223269
-7.042266844
-6.597151943
-8.28038962
-8.278850781
-8.638312484
-7.992349479
-7.98505752
-8.287286121
-8.630039798
-8.310771433
-8.310527437
-8.653334947
-8.006706752
-8.017862406
-8.302109702
-8.662232264
-7.969001884
-7.552533913
-7.370253354
-7.652326466
-7.664874852
-7.562624952
-7.957653102
-9.039734667
-8.692598033
-9.03178654
-9.37685471
-8.986356453
-9.384770615
-8.976131054
-8.227810005
-8.747441009
-8.257158891
-7.600056637
-7.58077285
-7.921988198
-8.797668287
-8.778971038
-7.942102763
-8.648285373
-8.993794069
-8.985023725
-9.32769724
-8.939789639
-9.337732414
-8.93014979
-9.693577145
-10.06000221
-9.308954753
-9.564798989
-9.704725116
-10.04790506
-9.298410934
-9.744990843
-9.356595497
-10.10872768
-9.61441858
-10.10089193
-9.752741508
-9.34654801
-8.680836487
-9.00947537
-9.018497523
-9.363461607
-8.955228359
-9.354338566
-8.96419294
-9.731428222
-10.07815809
-9.602282554
-9.325548663
-10.08723617
-9.722274471
-9.334496728
-11.16712769
-11.42933141
-10.5470196
-10.63783326
-11.17653013
-11.4187016
-10.53650923
-11.59350506
-11.62535996
-10.68186756
-10.81932636
-11.6129815
-11.60711033
-10.66835105
-8.422514646
-9.308718085
-9.582248686
-9.28925259
-8.363285546
-8.400782214
-9.602575774
-8.404373489
-9.625000015
-8.381897133
-9.646585434
-9.109444058
-7.741322521
-8.129749778
-5.314293059
-6.856444073
-10.48953546
-9.995567212
-10.48144212
-10.81982789
-10.23005537
-10.82846383
-10.21986849
-11.39505602
-10.51569919
-11.14429052
-11.15224607
-10.62406236
-11.40272751
-10.52351329
-10.45881688
-9.983297031
-10.19907084
-10.46764108
-10.79717811
-10.80561358
-10.20731321
-11.48147977
-10.56794502
-11.1504884
-10.08634374
-11.13774885
-11.49566317
-10.55323161
-11.58757306
-10.64520525
-11.56666996
-11.57513867
-10.80445668
-11.59551849
-10.65223081
-9.8687922
-8.840376071
-10.6758338
-9.673491857
-10.66598158
-9.878566824
-8.819307571
-5.080104669
-4.399666857
-4.363462484
-3.87056477
-5.59665537
-4.66534819
-4.750474213
-5.732861985
-5.29228294
-3.124035642
-3.856988238
-2.512238049
-3.530214556
-2.622278148
-2.487706262
-5.575709176
-3.921047816
-2.78439705
-5.094569177
-5.578892791
-6.449595726
-6.448919371
-5.095540319
-4.720774795
-4.43585147
-4.717460079
-4.434605796
-4.10439418
-4.107011903
-3.60957481
-2.479636792
-3.598841457
-3.331199722
-2.470566711
-3.346953194
-2.456522254
-1.998925857
-1.724201264
-1.691658869
-2.581076747
-2.626028021
-2.032728792
-2.071426221
-2.766236281
-2.059238412
-2.09872835
-2.074590656
-2.121808509
-1.639162144
-1.605446447
-3.138671019
-2.423910904
-2.527034297
-1.262559492
-1.982510445
0.3089832583
-0.4779636309
-1.944861879
-0.8499893297
-11.28692128
-11.56706137
-12.09200303
-11.35859698
-11.64397093
-12.16983458
-10.45742639
-10.71419856
-11.70644241
-10.49307694
-10.78911171
-11.80679134
-11.33108338
-11.60303164
-12.14489552
-11.34336804
-11.62577825
-12.17207293
-10.4468368
-10.73018679
-11.7927658
-9.717430928
-10.61088362
-12.33404517
-10.4976892
-10.80791708
-11.80291073
-9.736881711
-10.70125259
-12.4363568
-4.699241424
-5.835679635
-7.359128968
-4.727830084
-5.847922076
-7.419589493
-11.28652432
-11.55448723
-12.09160563
-10.37483712
-10.6591738
-11.7184724
-11.23409982
-11.50342224
-12.01619048
-10.33644041
-10.56733031
-11.54076792
-9.627945732
-10.61716812
-12.43215648
13.8483368
12.98006855
11.25451781
-12.77065778
-12.9683125
-13.45144533
-12.77225034
-12.97103783
-13.46272803
-12.79455286
-13.00409278
-13.48386028
-12.76205214
-12.96694932
-13.45388768
-9.676159765
-10.65261908
-12.45619847
-4.707434203
-5.818742186
-7.368029464
-4.650982972
-5.779156349
-7.43691385
-9.688830559
-10.6006357
-12.40336735
-12.7657043
-12.96355123
-13.44959301
-12.76340212
-12.96515403
-13.44104874
-9.659967473
-10.54396751
-12.26374387
24.48708916
26.38868783
27.70967381
13.93763134
13.04412266
11.44887992
24.62066671
26.48452536
27.82295002
-8.35862632
-8.382698509
-8.384545918
-8.141286537
-8.117876112
-8.116126569
-7.44159935
-7.444476636
-7.44753601
-8.348365263
-8.372515405
-8.374427242
-8.131444949
-8.108420185
-8.106758162
-7.899072373
-7.901616762
-7.903758128
-7.435886625
-7.438494808
-7.441083772
-7.65743845
-7.665414663
-7.667362003
1.01004015
-4.313390821
-4.135973739
-4.359014284
-4.175339104
1.023194038
-8.31834229
-8.341647785
-8.34350845
-7.423317412
-7.425614086
-7.427784528
-8.104474466
-8.081116181
-8.079541927
-7.386536616
-7.389207291
-7.392636932
-7.560771987
-7.537624637
-7.527415348
-7.522880399
-7.50271933
-7.492678834
-8.309507064
-8.331808798
-8.333649948
-7.641033192
-7.649033549
-7.650376998
-7.419908158
-7.421778094
-7.424265705
-8.095525464
-8.072129377
-8.070638394
-7.864473021
-7.867286629
-7.869492384
-7.588142091
-7.595613881
-7.597923703
-7.393125459
-7.396628401
-7.400130595
-6.433452301
-6.425419643
-6.433689582
-6.112306379
-6.129798408
-6.147844043
-6.387164193
-6.38156044
-6.392998599
-6.100463419
-6.115303133
-6.132713609
-7.569964268
-7.547602572
-7.537676202
-7.09627541
-7.088738126
-7.082610306
-7.536308237
-7.515962815
-7.506824137
-7.561242004
-7.538936326
-7.529187817
-8.328900929
-8.353068649
-8.354883042
-7.433343327
-7.435716483
-7.437936226
-8.114962721
-8.091816008
-8.090043539
-7.108885783
-7.09936599
-7.094909248
-7.575208688
-7.552815792
-7.542865678
-8.339640431
-8.362489812
-8.364315076
-7.44200942
-7.444150248
-7.446561154
-7.654213673
-7.662148988
-7.663407265
-8.125112662
-8.101535601
-8.099906365
-7.875889725
-7.87826713
-7.880349606
-8.288632034
-8.310405792
-8.312330381
-8.077870422
-8.053312642
-8.051764303
-8.297020627
-8.32105464
-8.322943474
-8.082419405
-8.059317738
-8.057675129
-7.832992944
-7.836389568
-7.838642582
-9.861580732
-9.877232873
-9.878440802
-9.444863919
-9.454267112
-9.454930646
-9.475890726
-9.485271049
-9.485979273
-10.29784829
-10.31935914
-10.32103941
-9.851040289
-9.866767391
-9.867984219
-10.28727364
-10.30885578
-10.3105251
-8.86344783
-8.870356788
-8.867717166
-8.853729526
-8.860178088
-8.857482509
-9.074736943
-9.077438296
-9.079100429
-9.455113562
-9.464349767
-9.465047368
-9.085549999
-9.088082262
-9.089686737
-9.105927562
-9.108527464
-9.110161021
-9.46573966
-9.475127917
-9.475810376
-9.09522126
-9.097941939
-9.099627925
-7.890340923
-7.892837658
-7.894937929
-7.656121203
-7.664026034
-7.665663216
-11.27652339
-11.31489393
-11.31893634
-9.829967713
-9.845686719
-9.846880928
-11.24261218
-11.28105697
-11.28509829
-11.82493917
-11.87903989
-11.88545199
-13.62722542
-13.78427054
-13.80747754
-11.78968248
-11.84393237
-11.85037272
-14.1242506
-14.32610782
-14.36957297
-14.16475186
-14.41457349
-14.58374675
-11.26518228
-11.30368778
-11.30771162
-10.76770415
-10.79601605
-10.79857153
-10.75679214
-10.78519385
-10.7877382
-10.2657761
-10.28733631
-10.28899154
-9.840817421
-9.856282127
-9.857448142
-10.27675143
-10.29800604
-10.2996232
-11.25436348
-11.29228631
-11.29619882
-10.73483012
-10.76318517
-10.76572613
-10.74617973
-10.77415141
-10.77661319
-11.81302357
-11.86730055
-11.87368562
-12.40656277
-12.48494708
-12.49535202
-12.39408678
-12.47261764
-12.48296886
-12.98676467
-13.09937622
-13.11630181
-13.64182682
-13.79807363
-13.82094369
-13.00054356
-13.1122255
-13.12865453
-11.80195318
-11.85549162
-11.86173151
-12.36963933
-12.44828469
-12.45877049
-12.38258839
-12.46033356
-12.47051192
-14.14062938
-14.34206178
-14.38489743
-14.35524725
-14.58269946
-14.65400668
-14.3742685
-14.60123278
-14.67183949
-14.18459713
-14.43395497
-14.60044869
-14.35483305
-14.60064186
-14.71034616
-14.37668815
-14.62082746
-14.7288957
-13.89441278
-14.13493725
-14.37902015
-13.91011588
-14.14964778
-14.39155935
-13.52517145
-13.74167988
-14.07107364
-13.53749011
-13.75100992
-14.07927331
-6.507564245
-6.518425512
-6.510459728
-4.382570169
-4.193855704
-6.376372349
-6.388492606
-6.365688576
-2.201942723
-2.127335128
0.1430092256
0.1011001504
-2.100721469
-2.03133889
-4.412167486
-4.226774119
2.453642235
0.1290969761
0.07642745904
1.022309675
0.9372628895
0.9917912814
2.407607166
-2.091735366
-2.022654228
0.1175469847
0.0633518911
-2.049201398
-1.975042583
2.46519576
-6.510162107
-6.521310869
-6.508837263
-6.502094454
-6.510036672
-6.50177864
0.1136560482
0.06535598298
1.017264784
0.9408375473
2.480455953
0.9944561532
-7.103817859
-7.093170274
-7.08802818
-8.82079232
-8.8278344
-8.825339689
-8.810303767
-8.817044296
-8.814575089
-7.6278419
-7.635319907
-7.636686966
-7.855429442
-7.858396376
-7.860464449
-7.598670129
-7.606588484
-7.608753526
-7.089166928
-7.081379068
-7.078307847
-6.507739425
-6.489172618
-6.493343432
-6.122727686
-6.138387344
-6.152862168
-6.109453583
-6.12152445
-6.133304608
-6.517043047
-6.499587268
-6.504466827
-7.072357547
-7.065536634
-7.059826893
-7.099303101
-7.093340672
-7.089278522
-6.429710304
-6.426495319
-6.438554409
-6.500035576
-6.49962293
-6.506949382
-6.543815774
-6.524075076
-6.527997953
-6.166328436
-6.180235273
-6.19236343
-6.573403036
-6.556646571
-6.558048357
-6.14036695
-6.153312915
-6.165845738
-8.83355198
-8.840062411
-8.837331436
-8.841844054
-8.848880174
-8.846382625
-7.660908542
-7.668648558
-7.669876098
-7.883736249
-7.886628476
-7.888795339
-9.39155368
-9.401244157
-9.402003138
-9.433284699
-9.442497682
-9.443223928
-9.401441999
-9.410240988
-9.411017924
-11.18430484
-11.22341034
-11.22775382
-9.775080154
-9.791088278
-9.792398701
-11.19643686
-11.23315217
-11.23693237
-9.818699978
-9.834092266
-9.835277944
-9.785906501
-9.800815149
-9.802029225
-11.23094363
-11.26843837
-11.27225817
-9.024170773
-9.027036288
-9.02864709
-9.380118036
-9.390137863
-9.39083687
-9.013029512
-9.016327061
-9.01789101
-8.789749882
-8.796463332
-8.79411591
-8.800412075
-8.807591841
-8.804992507
-9.423106237
-9.432126577
-9.43284605
-9.064014562
-9.066554247
-9.068211985
-9.053898114
-9.056327532
-9.05799454
-9.033490316
-9.035840953
-9.037517161
-9.41181511
-9.421308746
-9.422047278
-9.043236767
-9.045990442
-9.047633883
-7.841462475
-7.844175114
-7.846409766
-10.67708684
-10.70590525
-10.70868143
-11.1708358
-11.21150877
-11.21631671
-10.66400307
-10.69386139
-10.69690304
-9.762909056
-9.779455187
-9.780795135
-10.20913662
-10.23104403
-10.23287947
-10.19653391
-10.21915489
-10.22110702
-10.6888873
-10.71592731
-10.71833095
-11.20755878
-11.24650276
-11.25076086
-10.70012585
-10.72873481
-10.73140854
-9.808352765
-9.823590595
-9.824804076
-10.25421417
-10.27532055
-10.27693201
-10.24371167
-10.26471796
-10.26639661
-9.796604573
-9.812386896
-9.813633821
-10.22051015
-10.2410288
-10.24264307
-10.23157279
-10.25324461
-10.25498813
-11.22019473
-11.25796085
-11.26202785
-10.72320313
-10.75091975
-10.75334227
-10.71255216
-10.74029936
-10.74286321
-11.74393316
-11.79582981
-11.80185234
-13.61448342
-13.76901358
-13.79135731
-11.77809846
-11.83093087
-11.83700044
-13.58235926
-13.7366663
-13.75918942
-13.88731758
-14.12593331
-14.36304673
-14.11175827
-14.31103334
-14.35276937
-14.07857087
-14.27788919
-14.31989163
-14.15973866
-14.40788866
-14.57021784
-11.75458644
-11.80975204
-11.81652553
-12.32466234
-12.40033639
-12.41024037
-12.33467551
-12.41492105
-12.42589645
-12.9747558
-13.08514451
-13.10128293
-13.60416943
-13.76089715
-13.7842867
-12.96416651
-13.07641066
-13.09318117
-11.76730179
-11.82079793
-11.82725835
-12.35804452
-12.43476092
-12.4446859
-12.34726566
-12.42520008
-12.43569645
-12.94242713
-13.05200923
-13.06793866
-13.59216322
-13.75229483
-13.77646828
-12.95197929
-13.06704751
-13.08470273
-13.85843499
-14.09686075
-14.33946608
-13.52304217
-13.73617533
-14.05935772
-13.49684444
-13.71479423
-14.04233636
-14.10040746
-14.30137844
-14.34505687
-14.34472183
-14.56948861
-14.63820664
-14.32858669
-14.5545856
-14.62618688
-14.3074553
-14.53264839
-14.60184734
-14.08596475
-14.28968561
-14.33577342
-14.30926546
-14.53516529
-14.61209092
-14.13263594
-14.37989116
-14.54854972
-14.34938893
-14.59169834
-14.69679848
-14.32585311
-14.56966947
-14.67945593
-6.503490089
-6.504680401
-6.508091745
-6.506949373
-6.50537458
-6.505694567
-5.819045328
-5.412036396
-3.334398855
-9.037784128
-11.59168741
-10.10295698
-9.568842456
-11.99810863
-11.84329499
-9.167689784
-8.495017016
-8.245392325
-11.47119893
-8.235922043
-6.360883135
-10.83146298
-11.11183103
-10.52821791
-10.09785132
-10.15352951
-9.658084494
-10.58464987
-9.720759511
-10.63895736
-10.02795016
-11.20875728
-12.14079855
-11.21266141
-11.3208567
-11.87720208
-10.85448856
-12.13312837
-10.91791468
-12.17163954
-11.27898249
-9.091060123
-8.77890533
-7.278549187
-8.403789791
-10.09653522
-7.329581757
-10.14978597
-8.761046005
-9.801911963
-11.50847532
-10.42588984
-11.01931867
-10.48682971
-11.0475557
-9.759500403
-8.22386002
-6.560483005
-6.623589818
-7.810716928
-6.904067835
-6.553650399
-5.859963115
-6.58275763
-7.775252319
-6.955807491
-7.036041646
-8.679068265
-7.666155973
-9.320354142
-8.541024293
-9.366685059
-8.628409061
-7.715779262
-5.442541634
-6.402855095
-5.493538997
-3.451156619
-4.189712394
-4.241024295
-3.414376329
-12.08335241
-12.22871094
-12.25060328
-10.29864804
-10.34186663
-10.34720244
-12.59777844
-12.7831942
-12.82333373
-12.66207203
-12.88914996
-13.06563376
-9.983028482
-10.20610104
-10.81204435
-9.039566204
-9.238675724
-10.36577798
-11.45924098
-11.55738968
-11.57206626
-10.36193111
-10.40966319
-10.41599228
-10.8541747
-10.92121435
-10.93064486
-10.91958407
-10.99188898
-11.00225773
-12.83121288
-13.04471027
-13.11531354
-12.72445138
-12.95465039
-13.14185967
-12.86508141
-13.08860312
-13.19891987
-12.91872595
-13.14443666
-13.26176945
-9.96286902
-10.19716269
-10.82389154
-9.114666508
-9.2251921
-10.31593106
-8.277497826
-9.121815674
-11.44436017
-12.42025216
-12.63801328
-12.89611594
-11.50413925
-11.66367583
-12.18296233
-11.65046284
-11.77291758
-12.29886949
-12.49142981
-12.70784353
-12.98176478
-12.13881107
-12.32738682
-12.68171561
-12.23453496
-12.4120035
-12.78739621
-8.391041719
-9.153536504
-11.33562921
0.04245647551
-0.1212021374
-0.1270205593
2.587431509
3.537073311
4.175713687
3.083839448
3.164149817
7.866447413
0.9039452888
0.7122605332
3.63988447
3.661501535
0.9579273854
0.796751581
3.679555751
1.108416081
1.320482464
1.12354893
2.929560273
2.59256553
1.301293661
1.129150109
2.964655224
6.514486389
7.921601299
6.56307359
5.974367753
5.217540187
5.188024066
5.988614677
2.578360399
3.42901308
1.02152705
0.7291729137
3.622152245
3.303294258
0.8250884263
1.027123042
3.639183511
1.105469307
1.340522621
1.125335248
2.567911258
2.907687768
1.132238183
1.316999491
2.908557459
0.8527449973
3.117316612
1.904177997
3.292799272
2.570216467
4.117244644
7.820755041
3.139339462
3.104057725
3.17290039
4.071145839
7.82254057
1.106791478
0.9882349676
3.675463511
3.194772961
1.285590049
0.9382248299
3.649408244
1.089939696
1.384804534
1.128659461
2.560914607
2.942506384
1.411702542
1.135479797
2.919199257
6.399706368
7.817449149
6.434358746
5.938566172
5.121997808
5.873709306
5.172482895
6.485896759
7.810388128
6.468494186
5.981479293
5.206416586
5.202476462
5.976155655
2.515387282