/*--------------------------------*- C++ -*----------------------------------*\
| =========                 |                                                 |
| \\      /  F ield         | OpenFOAM: The Open Source CFD Toolbox           |
|  \\    /   O peration     | Version:  2406                                  |
|   \\  /    A nd           | Website:  www.openfoam.com                      |
|    \\/     M anipulation  |                                                 |
\*---------------------------------------------------------------------------*/
FoamFile
{
    version     2.0;
    format      ascii;
    arch        "LSB;label=32;scalar=64";
    class       volScalarField;
    location    "250";
    object      p;
}
// * * * * * * * * * * * * * * * * * * * * * * * * * * * * * * * * * * * * * //

dimensions      [0 2 -2 0 0 0 0];

internalField   nonuniform List<scalar> 
124023
(
0.0002437714972
-0.003255427881
0.000160540857
-0.0006063843265
-0.001478109175
-0.001201562179
0.001091910122
0.002574027246
0.0006545647006
0.002682333035
0.002573030595
0.001072222028
0.001494166607
0.001594914145
-0.0005908125419
-0.002182837793
-0.005162377216
-0.005339402453
-0.004938096611
-0.004818570709
-0.002327392109
-0.002811960834
-0.002923072934
-0.0285746534
-0.03055008123
-0.01899805087
0.01487214378
-0.04589852357
-0.04575831907
-0.04257548571
-0.03077801679
-0.04288253158
0.01627204224
-0.01651045304
0.006388278146
0.0007440510724
-0.04173323301
-0.04165550006
0.0236856329
0.02308755619
-0.03325198806
-0.01918728372
-0.03352414078
0.01620537598
0.0009169460028
0.01599487346
0.0008838189836
0.0339363877
0.03227849091
0.03225758412
0.03375192758
-0.04634413695
-0.04556859063
-0.04439283216
-0.03751555576
-0.04229532894
-0.05093168188
-0.0375121082
-0.04437052569
-0.05087344853
-0.04450027588
-0.05098898412
-0.04280463298
-0.03781818673
-0.0377687834
-0.05097477859
-0.04453716168
-0.04205694388
-0.03421580122
-0.03449008393
-0.04146780058
-0.03459255382
-0.03437738614
-0.009331812005
-0.01110442773
0.03218538222
0.02357518622
-0.009690048337
-0.01111899048
0.03207431641
-0.009534099597
-0.0112017685
0.02326214265
0.03186030573
-0.00945268852
-0.01114280211
0.03202307944
-0.02873319733
-0.03980561342
-0.03398083946
-0.03570657673
-0.03065565696
-0.03407762805
-0.03580567193
-0.03973060643
0.02227978508
0.01188964537
0.02262463348
0.01486805823
0.02261104031
0.02218333926
0.01199983825
-0.03989624631
-0.03074873658
-0.0342381324
-0.03592047107
-0.0341770451
-0.03587051986
-0.03997846841
-0.02888047575
-0.03347764782
-0.02903097852
-0.01966287113
-0.02338688598
-0.01951326681
-0.02360972751
-0.0334678794
-0.02924561479
-0.02920089432
-0.01977830122
-0.02371921195
-0.0235955369
-0.0198232292
-0.004451781685
-0.005478826881
0.01616402296
0.008888095246
-0.005461435231
-0.004476278383
0.008879072728
-0.004457825287
-0.005282914109
0.01606938443
0.008800136442
-0.004319908308
-0.005461858261
0.008861887921
0.04389148514
0.04741323064
0.03392827077
0.03390320265
0.04739675808
0.03393022736
0.04386568223
0.04393657667
0.03384653065
0.0473760508
0.03390444456
0.0439614385
0.0474114438
0.03391759705
0.009237372142
0.004624346815
-0.0167572075
-0.002139801341
-0.002401196841
-0.03043655621
-0.01888902968
-0.04676970457
-0.04178908367
-0.04222765231
-0.03283086767
-0.04542094362
-0.04420012119
-0.03723725433
-0.04220647983
-0.05079067376
-0.03732550631
-0.05054917497
-0.0442807611
-0.04129853356
-0.03480096383
-0.03423947993
-0.03965761494
-0.03398916944
-0.03565873268
-0.03027212412
-0.03381131432
-0.03974451006
-0.03552257581
-0.02828762811
-0.0286384978
-0.03299856092
-0.02875710058
-0.01943850878
-0.02321909822
-0.0233097764
-0.01939546171
0.01487726769
0.03917698821
0.008731601055
0.005472754757
0.005515605971
0.004213880429
0.01490154661
0.02343126625
0.01232667305
0.07998104958
0.003016534531
0.06620527777
0.06577807125
0.05392019384
0.05954636796
0.08021041702
0.06481325538
0.05961242512
0.05395223193
0.06474240816
0.005280516694
0.005720685834
0.004234811434
0.01228977391
0.0006570491974
0.008575526837
0.004555572044
0.005332494698
0.008621113342
0.009167400854
-0.01510824755
-0.02275650568
-0.03705576266
-0.0268618016
-0.03429560854
-0.02282121908
-0.03889770146
-0.04350839272
-0.03655539082
-0.03587537621
-0.02906518078
-0.03138713516
-0.03190063938
-0.03717024379
-0.03347751517
-0.03352605908
-0.04185542779
-0.03723832396
-0.04199820305
-0.03302366513
-0.04356668572
-0.04530264414
-0.04346232809
-0.04189120784
-0.04526068097
-0.04361245512
-0.04184212867
-0.03652689748
-0.03371796394
-0.03561529992
-0.03494594605
-0.03419746
-0.03371535611
-0.03493331919
-0.03414164783
-0.03711947182
-0.03553813727
-0.03546843815
-0.03347161281
-0.03415694141
-0.03413318887
-0.03619083699
-0.0332862581
-0.03915295918
-0.03376267921
-0.0391165036
-0.03367894744
-0.03626223114
-0.03828392551
-0.04004618167
-0.04054764349
-0.04190120699
-0.04010257822
-0.04060446112
-0.03822302894
-0.03834734504
-0.04070514762
-0.04195080683
-0.04021416389
-0.0401632705
-0.04064607441
-0.03840078987
-0.03698514519
-0.03398304012
-0.03862821635
-0.03573188077
-0.03705077965
-0.03710090022
-0.03712051051
-0.0357997585
-0.03868176755
-0.02470924016
-0.0269254954
-0.02668197789
-0.02477097291
-0.02923529613
-0.02699431026
-0.03150086111
-0.02951447962
-0.034393493
-0.03157855839
-0.03185977402
-0.02958808283
-0.04189712984
-0.03884247981
-0.04016079939
-0.04040140404
-0.04193756942
-0.04010838568
-0.04035694776
-0.03027795986
-0.03139406868
-0.030249397
-0.03179841565
-0.03300823703
-0.03181241426
-0.03303219988
-0.03718038532
-0.03718332087
-0.03880536839
-0.03591398086
-0.03586052284
-0.03875765305
-0.03722530063
-0.03559401852
-0.03387483081
-0.03297671531
-0.03432514754
-0.03427012927
-0.03382409648
-0.03568025282
-0.01584217403
-0.0117759043
-0.01787374128
-0.004965430318
-0.01049916132
-0.004988846675
7.49163462e-07
-0.005467982777
-0.0197226361
-0.01966327778
-0.01955154212
-0.01735233639
-0.0174463954
-0.02287281434
-0.01982019355
-0.01408433969
-0.01090529483
-0.0141521353
-0.01591003724
-0.01137897725
-0.01136979878
-0.01091310645
-0.0217595848
-0.01885932913
-0.02369318055
-0.02181445153
-0.02031870749
-0.01889654259
-0.01494643068
-0.01115663324
-0.01616409835
-0.01499109992
-0.01102502173
-0.01105597474
-0.01650499541
-0.01895531076
-0.02505777641
-0.01232203613
-0.03748633068
-0.02989334143
-0.04739716512
-0.03871445579
-0.04819663685
-0.03756563018
-0.03015637087
-0.0318995164
-0.03688573384
-0.05153363531
-0.05829104066
-0.04453053389
-0.05142375995
-0.04466268031
-0.04932624655
-0.04337098566
-0.04283283801
-0.04921527081
-0.04298201156
-0.05991065724
-0.04492449023
-0.05902582122
-0.05119461334
-0.05149405121
-0.0538219611
-0.04927037674
-0.05377731994
-0.05122720418
-0.04923752688
-0.05313383264
-0.05483027045
-0.05604625424
-0.0583303446
-0.05310905346
-0.05608002938
-0.05485889098
-0.05116760388
-0.05145577862
-0.05370297076
-0.04917322285
-0.05114063855
-0.05373424732
-0.04920504995
-0.04537961686
-0.04928804346
-0.04730933036
-0.04724346512
-0.04720407271
-0.04727310023
-0.04542053743
-0.0435144141
-0.04173072473
-0.04517573971
-0.04341659681
-0.04346492471
-0.04521735429
-0.04178451269
-0.04533360542
-0.04925011316
-0.04712581592
-0.04719575517
-0.04528906937
-0.04716410451
-0.04723386098
-0.05637841582
-0.05600593107
-0.05994613897
-0.06056207677
-0.05603696886
-0.05635415075
-0.06059342852
-0.05595396143
-0.05904766391
-0.06023857597
-0.05454401364
-0.05592230675
-0.06027136606
-0.05459672977
-0.04297206115
-0.0345933318
-0.0405831883
-0.03754275738
-0.03454947364
-0.04979944176
-0.05090919721
-0.04743126011
-0.0469447065
-0.04978658278
-0.05091868907
-0.04698217599
-0.04022946013
-0.03998447174
-0.04177608683
-0.04182374919
-0.03877829308
-0.0400462739
-0.04028018839
-0.05166368677
-0.05175769205
-0.04822830524
-0.04752122278
-0.04755186549
-0.05176424734
-0.05166076521
-0.04148120344
-0.03730078859
-0.04278436634
-0.03737347687
-0.03763026439
-0.04156288706
-0.03390281348
-0.0392096851
-0.03542588348
-0.03550343473
-0.03930268731
-0.04671800391
-0.04825147108
-0.04553373049
-0.04457834458
-0.0482321266
-0.04674498698
-0.04557570388
-0.04829817488
-0.04681669347
-0.0456440657
-0.04462735445
-0.04830520685
-0.04680044736
-0.04561749443
-0.04163551439
-0.04501558001
-0.04342221692
-0.04346430249
-0.04288588248
-0.04505031777
-0.04169403293
-0.04353345536
-0.04513869841
-0.04294024727
-0.04180201753
-0.04511329251
-0.04356728731
-0.04175348651
-0.05115012391
-0.04700076962
-0.04495991082
-0.04959605937
-0.04703147126
-0.05114564814
-0.04961384318
-0.02370110506
-0.01909490757
-0.01406286026
-0.01743614523
-0.02386063225
-0.01729295516
-0.01416190839
-0.02089632704
-0.02140023525
-0.02127757725
-0.02566233593
-0.02518742694
-0.02102981542
-0.02580712933
-0.005882567865
-0.02144065647
-0.04309352722
-0.05735554941
-0.008724367213
-0.04918245506
-0.05735368065
-0.05521606601
-0.0523820312
-0.04912474725
-0.05519245074
-0.05244791353
-0.03067893891
-0.03627386858
-0.02389150009
-0.02391353454
-0.03064762058
-0.04396365538
-0.03930999751
-0.04313920932
-0.04748036983
-0.03937649905
-0.04390311402
-0.04752020839
-0.01490373198
-0.0150103024
-0.005244255555
-0.005016261998
-0.008563092526
-0.008736496244
-0.002055008789
-0.003710644001
-0.006549395863
-0.02798673989
-0.02155376211
-0.02786450455
-0.02158401829
-0.003430698999
-0.009523379337
-0.01756008604
-0.01112616543
-0.01080919983
-0.01776498719
-0.003321871586
0.01501530445
0.01179835452
-0.01676515123
-0.01062749348
-0.009473230167
-0.01458925584
-0.01043013915
-0.01694310314
-0.01458342823
-0.0003207636418
-0.000321118166
0.003545143459
0.003783526354
0.007403325865
0.00621432156
0.0146252075
0.01641701013
0.006089751824
0.01655854699
0.008318364988
-0.003855431252
-0.002644771629
0.002328473439
0.005460755586
-0.00232786725
-0.003290251466
-0.002288851412
0.003595745665
0.001821691342
0.001807113361
0.003685594176
0.007703373746
0.006014718103
0.01173396823
0.01332731289
0.005967053451
0.01341769315
0.007814157488
-0.005349665773
-0.003369390894
-0.009452121567
-0.01730949613
-0.01069023931
-0.01071734879
-0.01743200608
-0.00332891475
0.01515034199
0.01183085119
-0.01655063712
-0.01029191949
-0.00937269543
-0.01456208342
-0.01030696663
-0.01443721414
-0.01672214534
-0.02802162031
-0.02163917136
-0.02156949835
-0.02817676063
-0.0003887119732
-0.0005259220036
0.003603709298
0.003735071762
0.008473811187
0.006630569164
0.01508147961
0.01627888884
0.006539682016
0.01654649894
0.0084877802
-0.004861706297
-0.003715364667
-0.00261521111
0.00236339146
0.005489356089
-0.002354924246
-0.003286163339
-0.002351064784
0.003623809121
0.001809801686
0.001831346667
0.003612370563
0.00789000344
0.006036218492
0.0118643902
0.01329466009
0.006058284083
0.01343744288
0.007810399803
-0.01488102654
-0.02890915926
-0.025746541
-0.008741321699
-0.01033243086
-0.02652301131
-0.02267636647
-0.02355739384
-0.01775179485
-0.03641281222
-0.03130216855
-0.03172870349
-0.02884513924
-0.03546660364
-0.03115270704
-0.03343015622
-0.03697518369
-0.03322743078
-0.03280512538
-0.03301950153
-0.02520178403
-0.02969531325
-0.02210435178
-0.02566788751
-0.02953885977
-0.02522990478
-0.02203437215
-0.02699363128
-0.03381200416
-0.03354255334
-0.02683662194
-0.03631123527
-0.0334735851
-0.03560141029
-0.03487781583
-0.03401599783
-0.03471789823
-0.03394954712
-0.03363976142
-0.03404471297
-0.03336498499
-0.03397704689
-0.03692194389
-0.03534180421
-0.03531469901
-0.03381959357
-0.03326455796
-0.03386467315
-0.03598314392
-0.0332380138
-0.03897098313
-0.0334722954
-0.03894526851
-0.03349886795
-0.03599525497
-0.02945087677
-0.02887419182
-0.02737392956
-0.0268294478
-0.02875901616
-0.02917675731
-0.02736142598
-0.03108847115
-0.0337447632
-0.02877179547
-0.02925900186
-0.0310812513
-0.03102238975
-0.02803212938
-0.03363681874
-0.0284497504
-0.03092256855
-0.02989464027
-0.02667570855
-0.0289080388
-0.02749609255
-0.0288015445
-0.02746394642
-0.02971438939
-0.02973434262
-0.02529240638
-0.02490078453
-0.03386348614
-0.02690466621
-0.02898668009
-0.02661681264
-0.03643380008
-0.03132776409
-0.0318048542
-0.03551550192
-0.03345950177
-0.03701253264
-0.0328565741
-0.03308802682
-0.02273064674
-0.02489035664
-0.02856389402
-0.02873130635
-0.03117569336
-0.03383874056
-0.02896120167
-0.03117098772
-0.02936220718
-0.03010384389
-0.02679968202
-0.02903311607
-0.0276514011
-0.03004788321
-0.02895017841
-0.02764733401
-0.03646435631
-0.03366949753
-0.03576386117
-0.03490802505
-0.03405204491
-0.03490092223
-0.03411860438
-0.0336689416
-0.03348867185
-0.0340541593
-0.03411514812
-0.03707050924
-0.03537139927
-0.03544700035
-0.03613471264
-0.03335152667
-0.03902384772
-0.03352992376
-0.0390553003
-0.03363001559
-0.03605059556
-0.02904975748
-0.02646920515
-0.02899404407
-0.02675746014
-0.02463061878
-0.02455310861
-0.02683673222
-0.03164693825
-0.02941171945
-0.03157744443
-0.03012388249
-0.03296128422
-0.03121796384
-0.03280059837
-0.03007232272
-0.03168914244
-0.03154648969
-0.03278520327
-0.03116480471
-0.03001182636
-0.03275883971
-0.03156341362
-0.03002908292
-0.03535844662
-0.0340973667
-0.03365296152
-0.03278908965
-0.03405981683
-0.03364839859
-0.0354344424
-0.02546334104
-0.02703489357
-0.02517784892
-0.02356752544
-0.02697353504
-0.02359693469
-0.02539277275
-0.02719341915
-0.02861286801
-0.02967621968
-0.027396173
-0.02857622354
-0.02740689065
-0.02723448171
-0.02709385387
-0.02715439765
-0.02958815487
-0.02857427865
-0.02856709476
-0.02724861217
-0.0270000131
-0.02556041307
-0.02516907311
-0.02704520354
-0.02369365084
-0.02695327319
-0.02366317468
-0.02559632788
-0.02863819364
-0.02745361042
-0.02726588018
-0.02731046171
-0.02976485723
-0.0275010439
-0.0286970142
-0.02710208647
-0.02372817647
-0.02563158621
-0.0256775891
-0.02528253424
-0.02706869177
-0.02377651398
-0.02915166716
-0.03176972363
-0.03014745329
-0.03298239795
-0.03171359351
-0.03133222103
-0.03019958887
-0.03173588733
-0.03295344231
-0.0341446914
-0.03370747845
-0.03546209148
-0.03555879491
-0.03292211356
-0.03421953311
-0.03375884442
-0.02105042896
-0.0197388546
-0.01831221086
-0.02275563699
-0.02109748899
-0.01977134012
-0.01834832558
-0.02581988393
-0.01122090853
-0.0236430147
-0.0161294604
-0.02217381942
-0.01752297904
-0.01242589594
-0.02020446681
-0.02350188417
-0.0201500095
-0.0187250387
-0.02168930166
-0.01878427877
-0.0216146913
-0.02028188311
-0.01113591759
-0.01625084713
-0.03699292765
-0.0266951149
-0.03417227551
-0.03626667579
-0.03534970252
-0.03165647019
-0.03681736389
-0.04159912817
-0.03683930975
-0.03296123229
-0.04182156754
-0.03686344026
-0.04166245605
-0.03268920855
-0.0386513916
-0.02997433313
-0.03171535817
-0.03676608652
-0.0489172607
-0.03846451282
-0.04310456841
-0.04255905314
-0.04901248932
-0.0433401236
-0.04278197205
-0.0385144406
-0.04317593893
-0.04918698812
-0.04263167815
-0.03626763779
-0.03343966408
-0.03550759143
-0.0346914686
-0.03389090198
-0.03467507063
-0.03390874134
-0.0334796754
-0.03796961913
-0.04031420058
-0.04155518392
-0.03980254319
-0.0402687974
-0.03800043357
-0.03976851827
-0.03685985075
-0.03518648704
-0.0352436681
-0.03593302058
-0.0388162213
-0.03313881257
-0.03338197293
-0.03888246697
-0.0334516055
-0.03588725384
-0.03812858409
-0.03999161153
-0.04175562304
-0.04052606279
-0.04045612432
-0.03994703834
-0.03816744309
-0.03807623934
-0.04036929278
-0.04169657759
-0.03985227024
-0.04039771008
-0.0380404897
-0.03989064643
-0.0449527024
-0.046836094
-0.04690282169
-0.04884039909
-0.0467666956
-0.04500469172
-0.04684377271
-0.04305110329
-0.04147039258
-0.04143234548
-0.04314528195
-0.0448957347
-0.04483452971
-0.0431897266
-0.04513898745
-0.0469247991
-0.04904376992
-0.04698629735
-0.04695777747
-0.04705113147
-0.04507947649
-0.04167443829
-0.04326840139
-0.04163232019
-0.04337115316
-0.04514595212
-0.04507190213
-0.04341242845
-0.0432077561
-0.04152631632
-0.04157228479
-0.04330750941
-0.04497613952
-0.04500936221
-0.04325505617
-0.04520586522
-0.04911038079
-0.0470982435
-0.04715460884
-0.04702231397
-0.04712095865
-0.04524386372
-0.01208615824
-0.01208058355
-0.04736190325
-0.01880374707
-0.04816420781
-0.03708212477
-0.02131213633
-0.02972503201
-0.05121816146
-0.0582326149
-0.04448611308
-0.04720454759
-0.05138969164
-0.05808124555
-0.04433425502
-0.05983817781
-0.04490297322
-0.04800763569
-0.05970675926
-0.05892191804
-0.04307400263
-0.05726507192
-0.05099876114
-0.05124386373
-0.05349429482
-0.04896323416
-0.05351229071
-0.04903083519
-0.05092878138
-0.05303905089
-0.05477785012
-0.05599805051
-0.05813962127
-0.05591235313
-0.05306667564
-0.05474925143
-0.05107449022
-0.05131203401
-0.05366198463
-0.04913282285
-0.05358220647
-0.0491030849
-0.05110137086
-0.05296033919
-0.05583454747
-0.0580715111
-0.05461715724
-0.05584125725
-0.05289320452
-0.0546724783
-0.05628570731
-0.0559541615
-0.0597394242
-0.0604662753
-0.05593503633
-0.06033898326
-0.05629210731
-0.05621174649
-0.06034655714
-0.05967369377
-0.05580839234
-0.0558603591
-0.06028694312
-0.05615466101
-0.05586174934
-0.05869711133
-0.06012522809
-0.05449110435
-0.05995874646
-0.05451924911
-0.05585268719
-0.04907128335
-0.05696794284
-0.0551488566
-0.05234192376
-0.05478395897
-0.05237327971
-0.04908887314
-0.03694102575
-0.03855491468
-0.03567659314
-0.03694537733
-0.03563627154
-0.03851238596
-0.03697670888
-0.03399347522
-0.03409801559
-0.03138962979
-0.03158177591
-0.03130384323
-0.02932949904
-0.03680495341
-0.0367972613
-0.03837856597
-0.03550816084
-0.03548952788
-0.03681667774
-0.03836258656
-0.03688084897
-0.03689074763
-0.03842881907
-0.03555469484
-0.03558545115
-0.03686145986
-0.03844888894
-0.03530176923
-0.03354384859
-0.03274311372
-0.03398243362
-0.03401391842
-0.03359026127
-0.03533276792
-0.04015474307
-0.03860117068
-0.04011398796
-0.04166530066
-0.0399234556
-0.04170541338
-0.03987302424
-0.03656504652
-0.0388782795
-0.03668321814
-0.0337867069
-0.03369619705
-0.03521335641
-0.03909668252
-0.03900874071
-0.03530671578
-0.03844097328
-0.03996223602
-0.0399433086
-0.04146880549
-0.03972369263
-0.04149520633
-0.03969538691
-0.0430964475
-0.04471609067
-0.04136780408
-0.04251808283
-0.04313146819
-0.04467188319
-0.04133355607
-0.04332169458
-0.04157990266
-0.04495614016
-0.04273789301
-0.04492482808
-0.0433577831
-0.04153211936
-0.03854309758
-0.04001941101
-0.04004736293
-0.04159575452
-0.03977987549
-0.04156199614
-0.03981224686
-0.04324990127
-0.04480413834
-0.04267379488
-0.04143240832
-0.04485166478
-0.04320888732
-0.04146921608
-0.04970831183
-0.05085507879
-0.04690839974
-0.04732058813
-0.04973491014
-0.05082396353
-0.04686960125
-0.05157061077
-0.05170393102
-0.04749038226
-0.04812054641
-0.05166987017
-0.05160641632
-0.04744192081
-0.03743731294
-0.04137667753
-0.04259428384
-0.04128569231
-0.0371774617
-0.03734258184
-0.04268621042
-0.0373515978
-0.0427854121
-0.03725666132
-0.04287723639
-0.04048216654
-0.03440122289
-0.03611842675
-0.02362545262
-0.03046611513
-0.04666245606
-0.04444541265
-0.04663531196
-0.04815470346
-0.04549319499
-0.04817972544
-0.04545432801
-0.05069235285
-0.04675252431
-0.04957267161
-0.04963211615
-0.04725463423
-0.05074921267
-0.04680313627
-0.04650875881
-0.04438024285
-0.04533920086
-0.04656151848
-0.04802226831
-0.04807976386
-0.04538865584
-0.05106160724
-0.04697440957
-0.04955770999
-0.04484515477
-0.04953692625
-0.05109495936
-0.04692168805
-0.05154603423
-0.04733475588
-0.05145153678
-0.05150411268
-0.04805571788
-0.05159948564
-0.04737952678
-0.04389372989
-0.03929019625
-0.04745959228
-0.04301117379
-0.04745645653
-0.04390435916
-0.03920631944
-0.02259478589
-0.01957145389
-0.01940864589
-0.017218451
-0.0248893502
-0.02074745455
-0.0211277451
-0.02549125964
-0.02353132089
-0.01389852728
-0.01715680211
-0.01117393604
-0.01570703965
-0.01166779057
-0.01106770178
-0.02496736789
-0.01746421104
-0.01236798738
-0.02270634927
-0.02487615433
-0.02891618805
-0.02879591328
-0.02269018958
-0.02102940289
-0.01975677901
-0.02100891663
-0.01975207883
-0.01828340904
-0.01829587749
-0.01606536471
-0.01103068692
-0.01601396814
-0.01482201737
-0.01099006396
-0.01489330809
-0.01092692034
-0.00889591811
-0.007674047437
-0.007529188744
-0.01148380904
-0.01168371391
-0.009045466819
-0.009217760262
-0.01230660211
-0.009163185687
-0.009339064485
-0.009231809356
-0.009442104566
-0.007295859411
-0.007145579744
-0.0139649023
-0.01078592573
-0.01124493069
-0.005623041298
-0.008828213727
0.001364878788
-0.002137843311
-0.008658597559
-0.003789916089
-0.04965417415
-0.05101080567
-0.05344086357
-0.04973457588
-0.05076532401
-0.05361111637
-0.04548067969
-0.04663614892
-0.05165376521
-0.04573585255
-0.04620631617
-0.05115829068
-0.0500008402
-0.05105283213
-0.05381020979
-0.04981844616
-0.05117100469
-0.05345587883
-0.04568739054
-0.04669666901
-0.05186453257
-0.04210397556
-0.04613206258
-0.05471395382
-0.04659705107
-0.04742098339
-0.0511538703
-0.04288217768
-0.04630198872
-0.05618480024
-0.02302173047
-0.02858114386
-0.03854206481
-0.02414714362
-0.03021889329
-0.0374549057
-0.05030062045
-0.05123852036
-0.05379799141
-0.0444978804
-0.04499348144
-0.04988192064
-0.04955856098
-0.05087407089
-0.05348003103
-0.04520467167
-0.04583995795
-0.05082865779
-0.03922230188
-0.04295359776
-0.05341332884
0.06118541815
0.05700519281
0.04920200141
-0.05700906171
-0.05795528309
-0.06011180469
-0.05732902929
-0.0581144251
-0.0604703648
-0.05779160938
-0.05831627967
-0.06072531679
-0.0575294348
-0.05835632435
-0.06042506022
-0.0424973159
-0.04650672297
-0.05724420444
-0.02365758496
-0.0293832199
-0.03536894987
-0.02324585698
-0.02812132099
-0.03441240295
-0.04336880405
-0.04617086076
-0.05385646208
-0.05713799489
-0.05801791226
-0.06016260581
-0.05735436571
-0.05813539973
-0.06051592524
-0.04239470185
-0.04620483587
-0.05537387699
0.1089386465
0.1170204404
0.1231510497
0.06205016245
0.05777263325
0.05219898321
0.1094995182
0.1174318092
0.1229404787
-0.03716485786
-0.03727691285
-0.03728564028
-0.03623422052
-0.0361277477
-0.03611849992
-0.03308771515
-0.0331005723
-0.03311160155
-0.03711641141
-0.03721823815
-0.03722745728
-0.03619421152
-0.03608331414
-0.03607533867
-0.03515493173
-0.0351658827
-0.03517612769
-0.03309924331
-0.03310939361
-0.0331192958
-0.03411636628
-0.03415427043
-0.0341615042
0.004866078275
-0.01907481481
-0.0182760714
-0.0192219221
-0.01839034619
0.004698190783
-0.03698353459
-0.03707752313
-0.03708528326
-0.03307927405
-0.03308415891
-0.03309494153
-0.03604334684
-0.03593807263
-0.03593260353
-0.03285847643
-0.03286996273
-0.03288523651
-0.0337071295
-0.03361112347
-0.0335675563
-0.03347336511
-0.03338426374
-0.03333944462
-0.03692454876
-0.03703728011
-0.03704599768
-0.03396051193
-0.03399024439
-0.03399706561
-0.03298833738
-0.03300055488
-0.03301107885
-0.03598979283
-0.0358864457
-0.03587741778
-0.03496737417
-0.03498202011
-0.03499190692
-0.03373991234
-0.03377265324
-0.033782881
-0.03287403253
-0.03289037746
-0.03290617924
-0.02861925545
-0.02857975287
-0.02861535073
-0.02718049274
-0.02725983172
-0.02734101331
-0.02841273869
-0.02838614728
-0.0284363057
-0.02712940474
-0.02719841284
-0.02727689305
-0.03365775172
-0.0335549363
-0.03350311918
-0.0315682997
-0.03153422866
-0.03150789147
-0.03351669912
-0.03342690752
-0.03338724012
-0.03375135186
-0.03365837029
-0.0336162363
-0.03701697862
-0.03711533108
-0.03712403524
-0.03311106447
-0.0331226427
-0.03313722807
-0.03607963224
-0.03597405767
-0.03596846661
-0.0316553361
-0.03161425021
-0.03159353731
-0.03373506603
-0.03363465837
-0.03358569883
-0.03706439147
-0.03717241111
-0.03718074979
-0.0331252746
-0.03313647766
-0.03314692732
-0.03397042599
-0.03400367021
-0.0340120016
-0.03612674899
-0.0360228907
-0.03601502898
-0.03499836382
-0.03501504876
-0.03502558504
-0.03684047033
-0.03693661541
-0.0369452339
-0.03590837703
-0.03579907409
-0.03579237725
-0.03687327243
-0.03698299952
-0.03699239886
-0.03593055996
-0.03582779518
-0.0358202093
-0.0348213932
-0.03483651586
-0.0348466114
-0.04386115492
-0.04393251604
-0.04393853259
-0.04198957451
-0.04203036487
-0.04203416606
-0.04214625884
-0.04218935343
-0.04219285301
-0.04580289072
-0.04590105265
-0.04590954007
-0.04381107953
-0.04388109911
-0.04388734617
-0.04575489787
-0.04585098656
-0.04585942091
-0.0394210743
-0.03945393839
-0.03944236231
-0.03935998475
-0.03939084765
-0.03938030638
-0.04033292111
-0.04034620313
-0.04035459746
-0.04204363523
-0.04208576985
-0.04208954585
-0.04039139759
-0.04040406121
-0.04041204332
-0.04050044191
-0.04051304787
-0.04052037608
-0.04209461623
-0.04213648477
-0.04214024257
-0.04044532783
-0.04045825427
-0.04046601763
-0.03510221234
-0.03511791705
-0.03512814967
-0.03407998687
-0.03411509031
-0.03412149444
-0.05016200861
-0.05033882662
-0.05035899261
-0.04371023571
-0.04377804511
-0.04378414305
-0.05002196623
-0.05018665271
-0.05020479461
-0.05260966697
-0.05285920943
-0.05289059793
-0.06059237575
-0.06128150811
-0.06138639991
-0.0524625305
-0.05269503317
-0.05272357506
-0.06274720926
-0.06363612291
-0.06383334578
-0.06278965653
-0.06391497868
-0.06468989775
-0.05011338536
-0.05028627558
-0.05030571339
-0.04789451634
-0.04802442961
-0.04803733461
-0.04784692933
-0.04797401381
-0.04798658281
-0.04565861095
-0.04575110495
-0.04575904368
-0.04376313496
-0.04383261011
-0.04383872278
-0.045709141
-0.04580421584
-0.04581245482
-0.05007072869
-0.05024088273
-0.05025978644
-0.04775401453
-0.0478754715
-0.0478871775
-0.04780339188
-0.04792858686
-0.04794079728
-0.05255667535
-0.05280057545
-0.05283083513
-0.05520860854
-0.0555702901
-0.05562031595
-0.05514625662
-0.05549993034
-0.05554844545
-0.0577758582
-0.05826631078
-0.05834135952
-0.06066592353
-0.06136872212
-0.06147523173
-0.05783841597
-0.0583426839
-0.05841872252
-0.05251258205
-0.05275311166
-0.05278272312
-0.0550426435
-0.05538170789
-0.0554281775
-0.05509681742
-0.05544706358
-0.05549471663
-0.06282483884
-0.06372334221
-0.06392559789
-0.06371189778
-0.06471605258
-0.06504161516
-0.0637924912
-0.06479592894
-0.06513379307
-0.06291104062
-0.06398888127
-0.06480645578
-0.06368220399
-0.06476914578
-0.06526952777
-0.06377842375
-0.06484568268
-0.06537276671
-0.06158102841
-0.06268590464
-0.06380978198
-0.06174506675
-0.06277428732
-0.06395527092
-0.06014276127
-0.06116698341
-0.06268220295
-0.06039456382
-0.06130424614
-0.06291816433
-0.02897131453
-0.02902259408
-0.02899073718
-0.01934999758
-0.01850214626
-0.02848442814
-0.02853458127
-0.02843272595
-0.009585191227
-0.009251049653
0.0008588851418
0.0006777815253
-0.009146896445
-0.008827685271
-0.01949227621
-0.01865723436
0.01128131125
0.0007796785568
0.0005557723996
0.004945550944
0.004769358159
0.004737915071
0.01081342467
-0.009133219137
-0.008823258754
0.0005721583609
0.0003388608005
-0.009003496505
-0.008672002184
0.01158287812
-0.0290286066
-0.0290802499
-0.02902798815
-0.02905757872
-0.02908131878
-0.0290316541
0.0005412100752
0.0003271820407
0.004709180331
0.005081627044
0.01145933788
0.005022005572
-0.03158262645
-0.0315381509
-0.0315167934
-0.03921109572
-0.03924067046
-0.03923042897
-0.03917877696
-0.03920924424
-0.03919704219
-0.03393093128
-0.03396611561
-0.03397188438
-0.03492609791
-0.03493659239
-0.03494633659
-0.03379208562
-0.03382795239
-0.03383706873
-0.03160750047
-0.03157484157
-0.03155702419
-0.02889867911
-0.02881230459
-0.02883232414
-0.02726617059
-0.02733559434
-0.027409854
-0.0271557776
-0.02721060806
-0.02726471945
-0.02889137872
-0.02883855096
-0.02886917547
-0.03147207947
-0.03144104132
-0.03141547148
-0.03167587032
-0.03164640451
-0.03162606985
-0.02872454948
-0.02870688988
-0.02876111435
-0.02897603239
-0.02897664403
-0.02901062244
-0.02913875763
-0.02904881893
-0.02906551983
-0.02742379313
-0.02748839599
-0.02754544165
-0.02922428556
-0.02915630314
-0.02916239561
-0.02735438507
-0.02740939605
-0.02746352986
-0.03925540671
-0.03928439826
-0.03927388786
-0.03931407841
-0.03934538001
-0.03933398615
-0.03406073745
-0.03409554789
-0.03410148919
-0.03505749745
-0.03506892652
-0.0350787676
-0.04174913035
-0.04179278782
-0.0417964352
-0.041945392
-0.04198498378
-0.04198828111
-0.04179413701
-0.04183395736
-0.04183794209
-0.04974373368
-0.04991707051
-0.04993601069
-0.04346012488
-0.04353190203
-0.04353797134
-0.04980505724
-0.04996315188
-0.04997864144
-0.04366966113
-0.04373510293
-0.04373992776
-0.04351031159
-0.04357646425
-0.04358218639
-0.04998567796
-0.05014492757
-0.05016037117
-0.04011076752
-0.04012401129
-0.04013144849
-0.04169671968
-0.0417409952
-0.04174412918
-0.04006081889
-0.04007542246
-0.04008238425
-0.03906829264
-0.03909889254
-0.03908905296
-0.03912163462
-0.03915304959
-0.03914164725
-0.04190271268
-0.04194782425
-0.04195146786
-0.04029114997
-0.040302523
-0.0403104534
-0.04024721894
-0.04026257795
-0.04027071565
-0.04015166383
-0.04016294605
-0.04017105587
-0.04184784897
-0.04189261887
-0.04189642357
-0.04019715107
-0.04021246696
-0.04022045739
-0.03485905366
-0.03487222567
-0.0348823834
-0.04748350615
-0.04761181472
-0.04762411695
-0.04967387131
-0.0498547547
-0.04987615363
-0.0474178374
-0.04755065741
-0.04756423474
-0.04340315951
-0.043476521
-0.04348250143
-0.04539674156
-0.04549463751
-0.04550294365
-0.04533559549
-0.0454361331
-0.04544485887
-0.04754174385
-0.04765921113
-0.0476693109
-0.04986586944
-0.0500408067
-0.05006059009
-0.04760211325
-0.04773116362
-0.04774386378
-0.04362049779
-0.04369377214
-0.04370013623
-0.04561878886
-0.04570814661
-0.04571435935
-0.0455683134
-0.04566771664
-0.04567644579
-0.04356388732
-0.0436367638
-0.04364312608
-0.04545102572
-0.04554111854
-0.04554827639
-0.04550927339
-0.04560788961
-0.04561642947
-0.04992808149
-0.05010535071
-0.05012612372
-0.04771652793
-0.04783362735
-0.04784302124
-0.04766291071
-0.04779327515
-0.04780651928
-0.05224159758
-0.05246382561
-0.0524885574
-0.06055009474
-0.06123303675
-0.06133274089
-0.0524256849
-0.05265296966
-0.05267869334
-0.06035482612
-0.06102132387
-0.06111641719
-0.06144798231
-0.06244201087
-0.06352315407
-0.06269055639
-0.06356491613
-0.06375389728
-0.06251292307
-0.06337938987
-0.06355581485
-0.06261507084
-0.06365383535
-0.06440949085