# Moment          
# CofR            : (0.0000000000e+00 0.0000000000e+00 0.0000000000e+00)
#
# Time            	total_x total_y total_z	pressure_x pressure_y pressure_z	viscous_x viscous_y viscous_z
1                  -9.3646756016e-03 6.1450180328e-02 1.2503076442e-02 -9.3899754906e-03 5.2572327063e-02 1.2585814985e-02 2.5299889061e-05 8.8778532647e-03 -8.2738543119e-05
2                  -1.7753702021e-02 1.3611699610e-02 8.6398435201e-04 -1.7694310323e-02 6.5807246808e-03 1.0328286329e-03 -5.9391698594e-05 7.0309749295e-03 -1.6884428089e-04
3                  -1.3520476767e-02 -1.2265069532e-02 -4.3336859855e-03 -1.3443396046e-02 -1.8062454005e-02 -4.2102966080e-03 -7.7080720412e-05 5.7973844730e-03 -1.2338937746e-04
4                  -5.0248152172e-03 8.5766424317e-04 6.5482782142e-04 -5.0063086713e-03 -4.2901314702e-03 7.1230300128e-04 -1.8506545877e-05 5.1477957133e-03 -5.7475179860e-05
5                  -8.1913793554e-03 1.1970097984e-02 2.6583228977e-03 -8.1826568780e-03 7.3556845199e-03 2.7118129449e-03 -8.7224774418e-06 4.6144134637e-03 -5.3490047234e-05
6                  -1.3509460395e-02 9.0213163803e-03 8.9731611632e-04 -1.3466012814e-02 4.9440738744e-03 9.6783726282e-04 -4.3447581619e-05 4.0772425060e-03 -7.0521146498e-05
7                  -1.2407514138e-02 4.1908792908e-03 2.3216618941e-04 -1.2351955064e-02 5.8207654059e-04 2.9857487055e-04 -5.5559073977e-05 3.6088027502e-03 -6.6408681138e-05
8                  -1.0901930972e-02 3.9344788138e-03 8.6830677075e-04 -1.0855533766e-02 6.7288334732e-04 9.2173368012e-04 -4.6397205801e-05 3.2615954665e-03 -5.3426909374e-05
9                  -1.2191463600e-02 4.7176334992e-03 7.3311240098e-04 -1.2146019340e-02 1.7105928090e-03 7.8173888325e-04 -4.5444259854e-05 3.0070406902e-03 -4.8626482271e-05
10                 -1.2603285766e-02 4.2590399439e-03 1.4339238868e-04 -1.2547420317e-02 1.4524535840e-03 1.9304030459e-04 -5.5865449842e-05 2.8065863599e-03 -4.9647915908e-05
11                 -1.1410578248e-02 3.8412515033e-03 1.1265841557e-04 -1.1348439208e-02 1.1980639378e-03 1.6116041200e-04 -6.2139040691e-05 2.6431875655e-03 -4.8501996430e-05
12                 -1.1113859017e-02 4.1234726166e-03 4.0761404782e-04 -1.1050533613e-02 1.6116657781e-03 4.5296349276e-04 -6.3325403952e-05 2.5118068384e-03 -4.5349444947e-05
13                 -1.1703115849e-02 4.1658943202e-03 3.6139459111e-04 -1.1638709757e-02 1.7631404176e-03 4.0401365817e-04 -6.4406092702e-05 2.4027539026e-03 -4.2619067057e-05
14                 -1.1615864646e-02 3.7162125436e-03 1.0449232393e-04 -1.1548556709e-02 1.4070879154e-03 1.4555948283e-04 -6.7307936248e-05 2.3091246282e-03 -4.1067158903e-05
15                 -1.0924302004e-02 3.4938737321e-03 5.6637901583e-05 -1.0854286368e-02 1.2634762740e-03 9.6390559947e-05 -7.0015636130e-05 2.2303974581e-03 -3.9752658364e-05
16                 -1.0743038138e-02 3.6087320140e-03 1.2539241141e-04 -1.0670467042e-02 1.4442958848e-03 1.6409246490e-04 -7.2571096724e-05 2.1644361293e-03 -3.8700053491e-05
17                 -1.0673584189e-02 3.6398801828e-03 7.5772996844e-05 -1.0599349906e-02 1.5353565861e-03 1.1339250691e-04 -7.4234282086e-05 2.1045235968e-03 -3.7619510062e-05
18                 -1.0371398177e-02 3.4812023938e-03 3.4016761338e-06 -1.0295458863e-02 1.4319696303e-03 4.0069299344e-05 -7.5939314143e-05 2.0492327635e-03 -3.6667623210e-05
19                 -1.0043903733e-02 3.3842959186e-03 4.0601892234e-05 -9.9667037948e-03 1.3845993162e-03 7.6165124773e-05 -7.7199937972e-05 1.9996966024e-03 -3.5563232539e-05
20                 -1.0046594261e-02 3.4135281737e-03 1.0364330020e-04 -9.9680261398e-03 1.4576095013e-03 1.3835795054e-04 -7.8568121054e-05 1.9559186725e-03 -3.4714650334e-05
21                 -9.9406246356e-03 3.3928358542e-03 7.0223752646e-05 -9.8611259661e-03 1.4770582980e-03 1.0417519121e-04 -7.9498669462e-05 1.9157775562e-03 -3.3951438565e-05
22                 -9.5924145050e-03 3.2989617594e-03 -5.7961543270e-06 -9.5118202090e-03 1.4203849538e-03 2.7558605860e-05 -8.0594296015e-05 1.8785768056e-03 -3.3354760187e-05
23                 -9.2798816707e-03 3.2530668855e-03 -1.2131349200e-05 -9.1983764440e-03 1.4081717892e-03 2.0416171644e-05 -8.1505226745e-05 1.8448950964e-03 -3.2547520844e-05
24                 -9.1713900812e-03 3.2645161736e-03 3.3926372587e-05 -9.0885829183e-03 1.4506388347e-03 6.5764465839e-05 -8.2807162897e-05 1.8138773390e-03 -3.1838093252e-05
25                 -9.1709986348e-03 3.2527317095e-03 6.1327981845e-05 -9.0874027781e-03 1.4681886774e-03 9.2462949032e-05 -8.3595856648e-05 1.7845430321e-03 -3.1134967186e-05
26                 -9.0519096319e-03 3.2001905523e-03 3.9439664687e-05 -8.9675605788e-03 1.4427728922e-03 7.0121421456e-05 -8.4349053104e-05 1.7574176601e-03 -3.0681756769e-05
27                 -8.8114930197e-03 3.1642950991e-03 1.2948322223e-05 -8.7267943229e-03 1.4309260573e-03 4.3103397203e-05 -8.4698696880e-05 1.7333690417e-03 -3.0155074980e-05
28                 -8.6138351020e-03 3.1583434556e-03 1.2721337024e-05 -8.5284572374e-03 1.4466059683e-03 4.2434088752e-05 -8.5377864671e-05 1.7117374873e-03 -2.9712751729e-05
29                 -8.5365881303e-03 3.1557125913e-03 3.1382930787e-05 -8.4506123984e-03 1.4642507206e-03 6.0527598304e-05 -8.5975731884e-05 1.6914618707e-03 -2.9144667517e-05
30                 -8.4480071953e-03 3.1366357629e-03 3.7553830247e-05 -8.3612498441e-03 1.4643374559e-03 6.6276797973e-05 -8.6757351164e-05 1.6722983070e-03 -2.8722967726e-05
31                 -8.3228449907e-03 3.1119782048e-03 2.8260468290e-05 -8.2357219994e-03 1.4572136297e-03 5.6529570402e-05 -8.7122991314e-05 1.6547645751e-03 -2.8269102113e-05
32                 -8.1832728828e-03 3.0998543073e-03 2.3712822208e-05 -8.0956719671e-03 1.4608887640e-03 5.1647825225e-05 -8.7600915668e-05 1.6389655433e-03 -2.7935003016e-05
33                 -8.0442046636e-03 3.0917704413e-03 2.5495988718e-05 -7.9563749446e-03 1.4671624597e-03 5.3028089647e-05 -8.7829718979e-05 1.6246079815e-03 -2.7532100930e-05
34                 -7.9287325764e-03 3.0836953346e-03 2.8813095694e-05 -7.8405207899e-03 1.4723752059e-03 5.6062478022e-05 -8.8211786509e-05 1.6113201286e-03 -2.7249382328e-05
35                 -7.8230084769e-03 3.0751969607e-03 2.8039712121e-05 -7.7347087422e-03 1.4759639008e-03 5.4974943543e-05 -8.8299734663e-05 1.5992330599e-03 -2.6935231422e-05
36                 -7.6918532305e-03 3.0674008946e-03 2.2186515286e-05 -7.6033666165e-03 1.4790918033e-03 4.8921530121e-05 -8.8486613944e-05 1.5883090913e-03 -2.6735014835e-05
37                 -7.5544862967e-03 3.0590746992e-03 2.0137081842e-05 -7.4660353445e-03 1.4807683331e-03 4.6598790663e-05 -8.8450952249e-05 1.5783063661e-03 -2.6461708821e-05
38                 -7.4279886276e-03 3.0517628552e-03 2.0889728821e-05 -7.3393714991e-03 1.4827609491e-03 4.7139457294e-05 -8.8617128506e-05 1.5690019060e-03 -2.6249728474e-05
39                 -7.3065385128e-03 3.0459994551e-03 2.1136990180e-05 -7.2180121467e-03 1.4855167418e-03 4.7133747431e-05 -8.8526366157e-05 1.5604827132e-03 -2.5996757251e-05
40                 -7.1835474931e-03 3.0422389989e-03 2.0061405829e-05 -7.0950390922e-03 1.4895384823e-03 4.5916387061e-05 -8.8508400938e-05 1.5527005166e-03 -2.5854981232e-05
41                 -7.0612388774e-03 3.0378226284e-03 2.0159051260e-05 -6.9729937640e-03 1.4922976865e-03 4.5833190817e-05 -8.8245113388e-05 1.5455249419e-03 -2.5674139557e-05
42                 -6.9496586518e-03 3.0336345368e-03 2.2734075830e-05 -6.8615123336e-03 1.4948301952e-03 4.8294258834e-05 -8.8146318168e-05 1.5388043416e-03 -2.5560183005e-05
43                 -6.8450929715e-03 3.0296456893e-03 2.6867157247e-05 -6.7571948218e-03 1.4971331332e-03 5.2245383732e-05 -8.7898149720e-05 1.5325125561e-03 -2.5378226485e-05
44                 -6.7456277834e-03 3.0267576018e-03 3.0747861104e-05 -6.6578069914e-03 1.5001552646e-03 5.6007903067e-05 -8.7820792026e-05 1.5266023372e-03 -2.5260041962e-05
45                 -6.6532756699e-03 3.0239495524e-03 3.5498364840e-05 -6.5657096490e-03 1.5028933955e-03 6.0590121592e-05 -8.7566020879e-05 1.5210561568e-03 -2.5091756752e-05
46                 -6.5716728591e-03 3.0220146567e-03 4.1156676125e-05 -6.4842027533e-03 1.5061711359e-03 6.6143734697e-05 -8.7470105814e-05 1.5158435208e-03 -2.4987058572e-05
47                 -6.4985070634e-03 3.0202884888e-03 4.7657999968e-05 -6.4112870325e-03 1.5093154882e-03 7.2488345087e-05 -8.7220030911e-05 1.5109730006e-03 -2.4830345119e-05
48                 -6.4321913081e-03 3.0192560213e-03 5.3794168219e-05 -6.3450471798e-03 1.5128493050e-03 7.8526423422e-05 -8.7144128326e-05 1.5064067163e-03 -2.4732255203e-05
49                 -6.3706321223e-03 3.0178700346e-03 5.9799695388e-05 -6.2837028768e-03 1.5157667131e-03 8.4386708825e-05 -8.6929245486e-05 1.5021033215e-03 -2.4587013437e-05
50                 -6.3153605952e-03 3.0168399189e-03 6.5520681137e-05 -6.2284833647e-03 1.5188101045e-03 9.0023524808e-05 -8.6877230420e-05 1.4980298144e-03 -2.4502843670e-05
51                 -6.2654243460e-03 3.0157450890e-03 7.1449226911e-05 -6.1787421886e-03 1.5215460317e-03 9.5825666392e-05 -8.6682157381e-05 1.4941990573e-03 -2.4376439481e-05
52                 -6.2207322575e-03 3.0153592246e-03 7.6873042056e-05 -6.1340910821e-03 1.5247424859e-03 1.0118298404e-04 -8.6641175391e-05 1.4906167387e-03 -2.4309941986e-05
53                 -6.1785799866e-03 3.0148305956e-03 8.1940581371e-05 -6.0921187597e-03 1.5275550745e-03 1.0614284121e-04 -8.6461226925e-05 1.4872755211e-03 -2.4202259838e-05
54                 -6.1389952974e-03 3.0146060439e-03 8.6260045354e-05 -6.0525649269e-03 1.5304601811e-03 1.1041151630e-04 -8.6430370520e-05 1.4841458629e-03 -2.4151470949e-05
55                 -6.1006297298e-03 3.0140129915e-03 9.0419989808e-05 -6.0143662682e-03 1.5328075749e-03 1.1447924833e-04 -8.6263461616e-05 1.4812054166e-03 -2.4059258522e-05
56                 -6.0643015124e-03 3.0137737048e-03 9.4124107352e-05 -5.9780621470e-03 1.5353268974e-03 1.1814593211e-04 -8.6239365446e-05 1.4784468074e-03 -2.4021824763e-05
57                 -6.0285856136e-03 3.0133472340e-03 9.7782949255e-05 -5.9425095084e-03 1.5374773614e-03 1.2172690728e-04 -8.6076105236e-05 1.4758698726e-03 -2.3943958027e-05
58                 -5.9939790414e-03 3.0133239663e-03 1.0095463008e-04 -5.9079310371e-03 1.5398535734e-03 1.2487408268e-04 -8.6048004302e-05 1.4734703929e-03 -2.3919452595e-05
59                 -5.9590198301e-03 3.0130074461e-03 1.0407237710e-04 -5.8731433768e-03 1.5417775586e-03 1.2792684369e-04 -8.5876453352e-05 1.4712298875e-03 -2.3854466584e-05
60                 -5.9245396472e-03 3.0129653424e-03 1.0680191339e-04 -5.8387041314e-03 1.5438328201e-03 1.3064226614e-04 -8.5835515788e-05 1.4691325223e-03 -2.3840352746e-05
61                 -5.8893991921e-03 3.0126037592e-03 1.0960750257e-04 -5.8037453549e-03 1.5454414252e-03 1.3339159353e-04 -8.5653837141e-05 1.4671623340e-03 -2.3784090962e-05
62                 -5.8544940535e-03 3.0125617155e-03 1.1211993210e-04 -5.7688915990e-03 1.5472452940e-03 1.3589667818e-04 -8.5602454523e-05 1.4653164215e-03 -2.3776746086e-05
63                 -5.8187380585e-03 3.0122418896e-03 1.1474830812e-04 -5.7333269213e-03 1.5486565689e-03 1.3847512091e-04 -8.5411137131e-05 1.4635853207e-03 -2.3726812794e-05
64                 -5.7830964639e-03 3.0122392359e-03 1.1709695392e-04 -5.6977483542e-03 1.5502736265e-03 1.4082149258e-04 -8.5348109697e-05 1.4619656094e-03 -2.3724538667e-05
65                 -5.7464114941e-03 3.0119270697e-03 1.1955260105e-04 -5.6612649761e-03 1.5514828580e-03 1.4323107088e-04 -8.5146518006e-05 1.4604442117e-03 -2.3678469830e-05
66                 -5.7098565913e-03 3.0118863712e-03 1.2171131028e-04 -5.6247824376e-03 1.5528661836e-03 1.4538981897e-04 -8.5074153745e-05 1.4590201876e-03 -2.3678508689e-05
67                 -5.6718596368e-03 3.0115655105e-03 1.2397632856e-04 -5.5869934542e-03 1.5538813887e-03 1.4761061590e-04 -8.4866182629e-05 1.4576841218e-03 -2.3634287335e-05
68                 -5.6337264673e-03 3.0115408549e-03 1.2592783783e-04 -5.5489371300e-03 1.5551014110e-03 1.4956350269e-04 -8.4789337288e-05 1.4564394439e-03 -2.3635664855e-05
69                 -5.5943449741e-03 3.0112038753e-03 1.2791395565e-04 -5.5097662153e-03 1.5559289556e-03 1.5150646161e-04 -8.4578758865e-05 1.4552749197e-03 -2.3592505958e-05
70                 -5.5543483221e-03 3.0111611652e-03 1.2952137497e-04 -5.4698513828e-03 1.5569639930e-03 1.5311661706e-04 -8.4496939341e-05 1.4541971722e-03 -2.3595242094e-05
71                 -5.5126249763e-03 3.0108034179e-03 1.3113077894e-04 -5.4283454517e-03 1.5576069696e-03 1.5468463004e-04 -8.4279524621e-05 1.4531964483e-03 -2.3553851102e-05
72                 -5.4700831786e-03 3.0107086005e-03 1.3235671474e-04 -5.3858925889e-03 1.5584322046e-03 1.5591470438e-04 -8.4190589714e-05 1.4522763959e-03 -2.3557989642e-05
73                 -5.4257614903e-03 3.0102625310e-03 1.3360995655e-04 -5.3417949194e-03 1.5588364692e-03 1.5712778447e-04 -8.3966570862e-05 1.4514260618e-03 -2.3517827923e-05
74                 -5.3807115197e-03 3.0100608794e-03 1.3455074571e-04 -5.2968394767e-03 1.5594155998e-03 1.5807263983e-04 -8.3872042969e-05 1.4506452795e-03 -2.3521894120e-05
75                 -5.3342106572e-03 3.0095109309e-03 1.3562684341e-04 -5.2505656850e-03 1.5595906703e-03 1.5910713720e-04 -8.3644972156e-05 1.4499202606e-03 -2.3480293793e-05
76                 -5.2875546262e-03 3.0092200380e-03 1.3653022083e-04 -5.2040060424e-03 1.5599736711e-03 1.6001227470e-04 -8.3548583842e-05 1.4492463669e-03 -2.3482053873e-05
77                 -5.2402859877e-03 3.0085853481e-03 1.3772455024e-04 -5.1569652843e-03 1.5599768997e-03 1.6116324294e-04 -8.3320703379e-05 1.4486084484e-03 -2.3438692697e-05
78                 -5.1938378388e-03 3.0082204166e-03 1.3890430086e-04 -5.1106147329e-03 1.5602164397e-03 1.6234300798e-04 -8.3223105966e-05 1.4480039768e-03 -2.3438707116e-05
79                 -5.1478580557e-03 3.0075399267e-03 1.4051136201e-04 -5.0648615983e-03 1.5601231518e-03 1.6390501632e-04 -8.2996457382e-05 1.4474167749e-03 -2.3393654301e-05
80                 -5.1038225925e-03 3.0071542163e-03 1.4221148839e-04 -5.0209214365e-03 1.5603085539e-03 1.6560287547e-04 -8.2901156080e-05 1.4468456624e-03 -2.3391387083e-05
81                 -5.0613193647e-03 3.0064792877e-03 1.4439856678e-04 -4.9786391151e-03 1.5602001828e-03 1.6774263921e-04 -8.2680249574e-05 1.4462791050e-03 -2.3344072434e-05
82                 -5.0216057664e-03 3.0061089620e-03 1.4669120024e-04 -4.9390128328e-03 1.5603909879e-03 1.7002995900e-04 -8.2592933595e-05 1.4457179741e-03 -2.3338758756e-05
83                 -4.9840427386e-03 3.0054707340e-03 1.4943127321e-04 -4.9016581292e-03 1.5603166639e-03 1.7271984236e-04 -8.2384609372e-05 1.4451540701e-03 -2.3288569148e-05
84                 -4.9496195879e-03 3.0051678138e-03 1.5219583421e-04 -4.8673079892e-03 1.5605735827e-03 1.7547612932e-04 -8.2311598682e-05 1.4445942311e-03 -2.3280295107e-05
85                 -4.9174145767e-03 3.0046128609e-03 1.5527474558e-04 -4.8352946333e-03 1.5605782116e-03 1.7850313754e-04 -8.2119943439e-05 1.4440346493e-03 -2.3228391968e-05
86                 -4.8881262124e-03 3.0043942552e-03 1.5821740481e-04 -4.8060634574e-03 1.5609100081e-03 1.8143626295e-04 -8.2062755049e-05 1.4434842471e-03 -2.3218858134e-05
87                 -4.8605733570e-03 3.0039267517e-03 1.6129470259e-04 -4.7786858496e-03 1.5609851766e-03 1.8446203041e-04 -8.1887507406e-05 1.4429415751e-03 -2.3167327815e-05
88                 -4.8352632312e-03 3.0037833112e-03 1.6406841256e-04 -4.7534191311e-03 1.5613665428e-03 1.8722729037e-04 -8.1844100150e-05 1.4424167683e-03 -2.3158877810e-05
89                 -4.8108824358e-03 3.0033715637e-03 1.6683337649e-04 -4.7291997156e-03 1.5614640402e-03 1.8994321286e-04 -8.1682720282e-05 1.4419075235e-03 -2.3109836373e-05
90                 -4.7879184256e-03 3.0032621671e-03 1.6919659249e-04 -4.7062675136e-03 1.5618398214e-03 1.9230065963e-04 -8.1650911933e-05 1.4414223456e-03 -2.3104067144e-05
91                 -4.7652037831e-03 3.0028684821e-03 1.7149298032e-04 -4.6837022392e-03 1.5619114360e-03 1.9455148067e-04 -8.1501543859e-05 1.4409570461e-03 -2.3058500348e-05
92                 -4.7432939617e-03 3.0027592206e-03 1.7336832635e-04 -4.6618143945e-03 1.5622406281e-03 1.9642402007e-04 -8.1479567128e-05 1.4405185925e-03 -2.3055693714e-05
93                 -4.7211438377e-03 3.0023577294e-03 1.7518660967e-04 -4.6398038336e-03 1.5622563221e-03 1.9819999932e-04 -8.1340004030e-05 1.4401014073e-03 -2.3013389653e-05
94                 -4.6994607418e-03 3.0022319255e-03 1.7662533152e-04 -4.6181348088e-03 1.5625212049e-03 1.9963850196e-04 -8.1325932990e-05 1.4397107206e-03 -2.3013170437e-05
95                 -4.6773354125e-03 3.0018024468e-03 1.7806401661e-04 -4.5961413441e-03 1.5624641414e-03 2.0103735911e-04 -8.1194068407e-05 1.4393383054e-03 -2.2973342503e-05
96                 -4.6556046140e-03 3.0016479333e-03 1.7921032977e-04 -4.5744182674e-03 1.5626596557e-03 2.0218501024e-04 -8.1186346608e-05 1.4389882776e-03 -2.2974680469e-05
97                 -4.6335778290e-03 3.0011961190e-03 1.8045196452e-04 -4.5525165141e-03 1.5625442337e-03 2.0338798446e-04 -8.1061314984e-05 1.4386518852e-03 -2.2936019945e-05
98                 -4.6120888700e-03 3.0010217242e-03 1.8147633281e-04 -4.5310295324e-03 1.5626884263e-03 2.0441412245e-04 -8.1059337580e-05 1.4383332980e-03 -2.2937789640e-05
99                 -4.5904587068e-03 3.0005551386e-03 1.8265286887e-04 -4.5095190709e-03 1.5625312829e-03 2.0555222753e-04 -8.0939635884e-05 1.4380238556e-03 -2.2899358654e-05
100                -4.5695582860e-03 3.0003771662e-03 1.8366437227e-04 -4.4886163304e-03 1.5626486718e-03 2.0656534356e-04 -8.0941955607e-05 1.4377284944e-03 -2.2900971291e-05
101                -4.5487384927e-03 2.9999205817e-03 1.8486924069e-04 -4.4679119902e-03 1.5624811406e-03 2.0773157686e-04 -8.0826502453e-05 1.4374394412e-03 -2.2862336171e-05
102                -4.5288247015e-03 2.9997605093e-03 1.8593138683e-04 -4.4479919764e-03 1.5625978394e-03 2.0879496183e-04 -8.0832725142e-05 1.4371626700e-03 -2.2863574996e-05
103                -4.5091197078e-03 2.9993255358e-03 1.8718788914e-04 -4.4283981396e-03 1.5624345370e-03 2.1001258312e-04 -8.0721568205e-05 1.4368909988e-03 -2.2824693976e-05
104                -4.4904088015e-03 2.9991926308e-03 1.8829095212e-04 -4.4096772088e-03 1.5625618425e-03 2.1111673061e-04 -8.0731592648e-05 1.4366307883e-03 -2.2825778494e-05
105                -4.4718689903e-03 2.9987793548e-03 1.8956235275e-04 -4.3912449274e-03 1.5624040396e-03 2.1234940368e-04 -8.0624062809e-05 1.4363753152e-03 -2.2787050926e-05
106                -4.4542749420e-03 2.9986659973e-03 1.9065579878e-04 -4.3736377389e-03 1.5625346399e-03 2.1344423620e-04 -8.0637203158e-05 1.4361313575e-03 -2.2788437421e-05
107                -4.4368806817e-03 2.9982763369e-03 1.9189739736e-04 -4.3563480920e-03 1.5623838128e-03 2.1464771695e-04 -8.0532589714e-05 1.4358925241e-03 -2.2750319590e-05
108                -4.4203333883e-03 2.9981853799e-03 1.9293674318e-04 -4.3397853028e-03 1.5625199227e-03 2.1568915335e-04 -8.0548085571e-05 1.4356654572e-03 -2.2752410168e-05
109                -4.4038905973e-03 2.9978157035e-03 1.9410636062e-04 -4.3234446547e-03 1.5623714896e-03 2.1682157568e-04 -8.0445942537e-05 1.4354442139e-03 -2.2715215066e-05
110                -4.3882347104e-03 2.9977413005e-03 1.9506721442e-04 -4.3077707691e-03 1.5625065091e-03 2.1778543347e-04 -8.0463941249e-05 1.4352347914e-03 -2.2718219043e-05
111                -4.3726377911e-03 2.9973831268e-03 1.9615327230e-04 -4.2922734525e-03 1.5623522743e-03 2.1883534876e-04 -8.0364338609e-05 1.4350308525e-03 -2.2682076468e-05
112                -4.3577524841e-03 2.9973172053e-03 1.9702953058e-04 -4.2773678211e-03 1.5624790888e-03 2.1971561572e-04 -8.0384662991e-05 1.4348381165e-03 -2.2686085142e-05
113                -4.3428681672e-03 2.9969655224e-03 1.9803391452e-04 -4.2625806122e-03 1.5623154942e-03 2.2068485209e-04 -8.0287554967e-05 1.4346500282e-03 -2.2650937574e-05
114                -4.3286650191e-03 2.9969084637e-03 1.9883875097e-04 -4.2483545453e-03 1.5624363157e-03 2.2149455035e-04 -8.0310473764e-05 1.4344721480e-03 -2.2655799386e-05
115                -4.3144628121e-03 2.9965658236e-03 1.9978173065e-04 -4.2342469069e-03 1.5622677194e-03 2.2240320969e-04 -8.0215905258e-05 1.4342981042e-03 -2.2621479046e-05
116                -4.3011385594e-03 2.9965139858e-03 2.0052730074e-04 -4.2208968030e-03 1.5623809607e-03 2.2315436715e-04 -8.0241756404e-05 1.4341330251e-03 -2.2627066413e-05
117                -4.2871784141e-03 2.9961804681e-03 2.0145263940e-04 -4.2070283275e-03 1.5622094184e-03 2.2404617841e-04 -8.0150086574e-05 1.4339710497e-03 -2.2593539003e-05
118                -4.2746471887e-03 2.9961428495e-03 2.0214860217e-04 -4.1944691853e-03 1.5623258633e-03 2.2474825707e-04 -8.0178003401e-05 1.4338169862e-03 -2.2599654898e-05
119                -4.2615332287e-03 2.9958242109e-03 2.0302158938e-04 -4.1814447370e-03 1.5621584150e-03 2.2558810261e-04 -8.0088491701e-05 1.4336657959e-03 -2.2566513223e-05
120                -4.2495169448e-03 2.9957956145e-03 2.0368562170e-04 -4.1693985095e-03 1.5622736401e-03 2.2625871055e-04 -8.0118435329e-05 1.4335219744e-03 -2.2573088854e-05
121                -4.2371164238e-03 2.9954879991e-03 2.0451519760e-04 -4.1570854367e-03 1.5621074267e-03 2.2705573985e-04 -8.0030987180e-05 1.4333805724e-03 -2.2540542258e-05
122                -4.2252844276e-03 2.9954623498e-03 2.0517384406e-04 -4.1452213584e-03 1.5622158656e-03 2.2772170425e-04 -8.0063069141e-05 1.4332464842e-03 -2.2547860188e-05
123                -4.2135765334e-03 2.9951713381e-03 2.0593766746e-04 -4.1335997154e-03 1.5620562261e-03 2.2845346701e-04 -7.9976817957e-05 1.4331151120e-03 -2.2515799552e-05
124                -4.2023653594e-03 2.9951617375e-03 2.0652587908e-04 -4.1223553864e-03 1.5621707274e-03 2.2904936995e-04 -8.0009973002e-05 1.4329910101e-03 -2.2523490865e-05
125                -4.1909845610e-03 2.9948765150e-03 2.0724416569e-04 -4.1110595302e-03 1.5620073670e-03 2.2973612634e-04 -7.9925030814e-05 1.4328691480e-03 -2.2491960649e-05
126                -4.1800795186e-03 2.9948683774e-03 2.0779200178e-04 -4.1001202371e-03 1.5621144212e-03 2.3029222545e-04 -7.9959281446e-05 1.4327539562e-03 -2.2500223667e-05
127                -4.1690986057e-03 2.9945869266e-03 2.0845924337e-04 -4.0892230900e-03 1.5619460322e-03 2.3092846349e-04 -7.9875515696e-05 1.4326408944e-03 -2.2469220120e-05
128                -4.1585600031e-03 2.9945863340e-03 2.0895663675e-04 -4.0786492578e-03 1.5620519487e-03 2.3143454480e-04 -7.9910745226e-05 1.4325343853e-03 -2.2477908047e-05
129                -4.1478814496e-03 2.9943117357e-03 2.0958090302e-04 -4.0680533428e-03 1.5618819436e-03 2.3202827688e-04 -7.9828106821e-05 1.4324297921e-03 -2.2447373868e-05
130                -4.1376464653e-03 2.9943155533e-03 2.1004222587e-04 -4.0577823394e-03 1.5619844962e-03 2.3249873843e-04 -7.9864125840e-05 1.4323310571e-03 -2.2456512552e-05
131                -4.1273055751e-03 2.9940437311e-03 2.1063233477e-04 -4.0475231457e-03 1.5618101014e-03 2.3305874911e-04 -7.9782429442e-05 1.4322336297e-03 -2.2426414341e-05
132                -4.1174050855e-03 2.9940507475e-03 2.1106366696e-04 -4.0375859165e-03 1.5619092745e-03 2.3349958104e-04 -7.9819169043e-05 1.4321414730e-03 -2.2435914079e-05
133                -4.1073922710e-03 2.9937838078e-03 2.1162840327e-04 -4.0276538392e-03 1.5617334716e-03 2.3403457554e-04 -7.9738431842e-05 1.4320503362e-03 -2.2406172266e-05
134                -4.0978258516e-03 2.9937950626e-03 2.1203865337e-04 -4.0180499434e-03 1.5618309518e-03 2.3445467285e-04 -7.9775908206e-05 1.4319641109e-03 -2.2416019486e-05
135                -4.0881667249e-03 2.9935314805e-03 2.1258400814e-04 -4.0084705529e-03 1.5616530187e-03 2.3497064219e-04 -7.9696171961e-05 1.4318784617e-03 -2.2386634051e-05
136                -4.0789657288e-03 2.9935468838e-03 2.1297670055e-04 -3.9992312490e-03 1.5617496017e-03 2.3537354921e-04 -7.9734479775e-05 1.4317972822e-03 -2.2396848660e-05
137                -4.0696790832e-03 2.9932886659e-03 2.1350580379e-04 -3.9900234151e-03 1.5615721617e-03 2.3587360825e-04 -7.9655668158e-05 1.4317165041e-03 -2.2367804456e-05
138                -4.0608544619e-03 2.9933095725e-03 2.1388457717e-04 -3.9811598616e-03 1.5616695952e-03 2.3626294779e-04 -7.9694600236e-05 1.4316399773e-03 -2.2378370624e-05
139                -4.0519559221e-03 2.9930561915e-03 2.1440007306e-04 -3.9723393912e-03 1.5614925605e-03 2.3674968251e-04 -7.9616530807e-05 1.4315636311e-03 -2.2349609457e-05
140                -4.0435264032e-03 2.9930820598e-03 2.1476563217e-04 -3.9638703134e-03 1.5615907398e-03 2.3712613031e-04 -7.9656089735e-05 1.4314913199e-03 -2.2360498135e-05
141                -4.0350301400e-03 2.9928346225e-03 2.1526810670e-04 -3.9554513647e-03 1.5614157053e-03 2.3760011186e-04 -7.9578775260e-05 1.4314189172e-03 -2.2332005162e-05
142                -4.0269951552e-03 2.9928647547e-03 2.1562196923e-04 -3.9473762173e-03 1.5615145600e-03 2.3796516342e-04 -7.9618937878e-05 1.4313501947e-03 -2.2343194189e-05
143                -4.0188996966e-03 2.9926212787e-03 2.1611164565e-04 -3.9393571681e-03 1.5613398970e-03 2.3842664377e-04 -7.9542528492e-05 1.4312813817e-03 -2.2314998115e-05
144                -4.0112720325e-03 2.9926587019e-03 2.1645242614e-04 -3.9316884973e-03 1.5614425371e-03 2.3877897186e-04 -7.9583535171e-05 1.4312161648e-03 -2.2326545718e-05
145                -4.0035792481e-03 2.9924219216e-03 2.1692857344e-04 -3.9240710206e-03 1.5612712661e-03 2.3922730320e-04 -7.9508227498e-05 1.4311506556e-03 -2.2298729764e-05
146                -3.9963449209e-03 2.9924632512e-03 2.1725525936e-04 -3.9167948217e-03 1.5613746818e-03 2.3956593368e-04 -7.9550099175e-05 1.4310885693e-03 -2.2310674320e-05
147                -3.9890429695e-03 2.9922313107e-03 2.1771466065e-04 -3.9095672142e-03 1.5612051056e-03 2.3999788659e-04 -7.9475755242e-05 1.4310262051e-03 -2.2283225936e-05
148                -3.9821826830e-03 2.9922787611e-03 2.1802421708e-04 -3.9026642955e-03 1.5613114855e-03 2.4031973528e-04 -7.9518387457e-05 1.4309672757e-03 -2.2295518194e-05
149                -3.9752437701e-03 2.9920526860e-03 2.1846621216e-04 -3.8957987576e-03 1.5611445733e-03 2.4073464755e-04 -7.9445012489e-05 1.4309081127e-03 -2.2268435389e-05
150                -3.9687381613e-03 2.9921051757e-03 2.1875855804e-04 -3.8892497594e-03 1.5612528075e-03 2.4103965250e-04 -7.9488401886e-05 1.4308523682e-03 -2.2281094459e-05
151                -3.9621517611e-03 2.9918838031e-03 2.1918095032e-04 -3.8827358371e-03 1.5610873953e-03 2.4143533232e-04 -7.9415924047e-05 1.4307964078e-03 -2.2254382003e-05
152                -3.9559806891e-03 2.9919399506e-03 2.1945265418e-04 -3.8765208161e-03 1.5611960784e-03 2.4172004482e-04 -7.9459873043e-05 1.4307438722e-03 -2.2267390640e-05
153                -3.9496966215e-03 2.9917216683e-03 2.1985550443e-04 -3.8703085149e-03 1.5610305502e-03 2.4209651984e-04 -7.9388106571e-05 1.4306911181e-03 -2.2241015413e-05
154                -3.9438121645e-03 2.9917809382e-03 2.2011032823e-04 -3.8643795284e-03 1.5611392604e-03 2.4236469049e-04 -7.9432636126e-05 1.4306416778e-03 -2.2254362256e-05
155                -3.9378257533e-03 2.9915676248e-03 2.2049600495e-04 -3.8584639964e-03 1.5609757426e-03 2.4272435360e-04 -7.9361756974e-05 1.4305918823e-03 -2.2228348654e-05
156                -3.9322368554e-03 2.9916328855e-03 2.2073321679e-04 -3.8528298563e-03 1.5610875695e-03 2.4297526084e-04 -7.9406999105e-05 1.4305453160e-03 -2.2242044049e-05
157                -3.9265292465e-03 2.9914236232e-03 2.2110180982e-04 -3.8471923131e-03 1.5609252482e-03 2.4331815684e-04 -7.9336933368e-05 1.4304983750e-03 -2.2216347023e-05
158                -3.9212031712e-03 2.9914910151e-03 2.2132360621e-04 -3.8418205146e-03 1.5610363737e-03 2.4355391250e-04 -7.9382656660e-05 1.4304546415e-03 -2.2230306284e-05
159                -3.9157567253e-03 2.9912855521e-03 2.2167733822e-04 -3.8364435223e-03 1.5608750854e-03 2.4388219875e-04 -7.9313202947e-05 1.4304104667e-03 -2.2204860528e-05
160                -3.9106911406e-03 2.9913577655e-03 2.2188533001e-04 -3.8313316937e-03 1.5609883910e-03 2.4410438938e-04 -7.9359446949e-05 1.4303693746e-03 -2.2219059372e-05
161                -3.9055039476e-03 2.9911559614e-03 2.2222491600e-04 -3.8262132412e-03 1.5608282556e-03 2.4441879253e-04 -7.9290706448e-05 1.4303277058e-03 -2.2193876527e-05
162                -3.9006896141e-03 2.9912304707e-03 2.2241933510e-04 -3.8213521670e-03 1.5609414174e-03 2.4462763177e-04 -7.9337447034e-05 1.4302890533e-03 -2.2208296672e-05
163                -3.8957476044e-03 2.9910318347e-03 2.2274561712e-04 -3.8164783055e-03 1.5607820456e-03 2.4492896344e-04 -7.9269298896e-05 1.4302497891e-03 -2.2183346322e-05
164                -3.8911714624e-03 2.9911098443e-03 2.2292786081e-04 -3.8118549563e-03 1.5608963940e-03 2.4512584233e-04 -7.9316506109e-05 1.4302134504e-03 -2.2197981518e-05
165                -3.8864619744e-03 2.9909142122e-03 2.2324204821e-04 -3.8072129977e-03 1.5607378995e-03 2.4541534452e-04 -7.9248976756e-05 1.4301763127e-03 -2.2173296308e-05
166                -3.8821485153e-03 2.9909954984e-03 2.2341365991e-04 -3.8028517699e-03 1.5608536449e-03 2.4560181999e-04 -7.9296745330e-05 1.4301418535e-03 -2.2188160083e-05
167                -3.8776006491e-03 2.9907995744e-03 2.2371032769e-04 -3.7983708493e-03 1.5606931404e-03 2.4587406884e-04 -7.9229799785e-05 1.4301064340e-03 -2.2163741154e-05
168                -3.8734952000e-03 2.9908847347e-03 2.2387246975e-04 -3.7942171734e-03 1.5608108716e-03 2.4605131205e-04 -7.9278026609e-05 1.4300738631e-03 -2.2178842296e-05
169                -3.8692139753e-03 2.9906893250e-03 2.2416051175e-04 -3.7900023294e-03 1.5606491488e-03 2.4631519206e-04 -7.9211645930e-05 1.4300401763e-03 -2.2154680307e-05