# Force           
# CofR            : (0.0000000000e+00 0.0000000000e+00 0.0000000000e+00)
#
# Time            	total_x total_y total_z	pressure_x pressure_y pressure_z	viscous_x viscous_y viscous_z
1                  5.4109266836e-01 5.8903515165e-02 -1.0543227251e-03 5.0124749247e-01 5.9093852807e-02 -1.0597866716e-03 3.9845175886e-02 -1.9033764224e-04 5.4639465095e-06
2                  1.3082050689e-01 1.9765064862e-01 9.4414228049e-03 1.0007369737e-01 1.9609839403e-01 9.4622409620e-03 3.0746809515e-02 1.5522545947e-03 -2.0818157040e-05
3                  -1.0802237707e-01 1.8249424045e-01 7.7875045715e-03 -1.3368358236e-01 1.8159302714e-01 7.8631917577e-03 2.5661205286e-02 9.0121331241e-04 -7.5687186141e-05
4                  -3.7440609722e-02 5.7975683279e-02 2.6015788434e-04 -6.1554741531e-02 5.8251599162e-02 3.3891214992e-04 2.4114131809e-02 -2.7591588296e-04 -7.8754265581e-05
5                  7.5835676867e-02 8.7595290716e-02 8.8444301296e-04 5.3490380831e-02 8.7680803775e-02 9.1103092571e-04 2.2345296036e-02 -8.5513059118e-05 -2.6587912756e-05
6                  8.5261323654e-02 1.7379070199e-01 5.2670099248e-03 6.4956599325e-02 1.7337150795e-01 5.2868421625e-03 2.0304724329e-02 4.1919403581e-04 -1.9832237750e-05
7                  4.0330240588e-02 1.6389070843e-01 5.2790585016e-03 2.2042801875e-02 1.6338689234e-01 5.3316376106e-03 1.8287438714e-02 5.0381608465e-04 -5.2579108932e-05
8                  2.2156309849e-02 1.3420847578e-01 3.2091620025e-03 5.4235496470e-03 1.3377452283e-01 3.2681522669e-03 1.6732760202e-02 4.3395295423e-04 -5.8990264401e-05
9                  3.3016318304e-02 1.5211531109e-01 3.2583449011e-03 1.7538964027e-02 1.5177096398e-01 3.3032792820e-03 1.5477354278e-02 3.4434710316e-04 -4.4934380912e-05
10                 3.6966757662e-02 1.7397871542e-01 4.3751912161e-03 2.2547434538e-02 1.7359916669e-01 4.4181306026e-03 1.4419323124e-02 3.7954872635e-04 -4.2939386546e-05
11                 3.1974094913e-02 1.6089085511e-01 4.3300334220e-03 1.8283440115e-02 1.6055118490e-01 4.3801947285e-03 1.3690654798e-02 3.3967021104e-04 -5.0161306500e-05
12                 3.1550073818e-02 1.5486534091e-01 3.6541173280e-03 1.8391662923e-02 1.5444941947e-01 3.7059490443e-03 1.3158410895e-02 4.1592144112e-04 -5.1831716251e-05
13                 3.4823081530e-02 1.6732352187e-01 3.5873145907e-03 2.2232813205e-02 1.6693109235e-01 3.6399670226e-03 1.2590268325e-02 3.9242951469e-04 -5.2652431927e-05
14                 3.1919571287e-02 1.7853986654e-01 3.9097851364e-03 1.9903392678e-02 1.7807627271e-01 3.9665045407e-03 1.2016178610e-02 4.6359382624e-04 -5.6719404372e-05
15                 2.8843133768e-02 1.7204565725e-01 3.9876070661e-03 1.7197225409e-02 1.7164528976e-01 4.0482109423e-03 1.1645908359e-02 4.0036748568e-04 -6.0603876145e-05
16                 3.0435524445e-02 1.6899212826e-01 3.8707430573e-03 1.8948420038e-02 1.6855898313e-01 3.9334506987e-03 1.1487104407e-02 4.3314513190e-04 -6.2707641423e-05
17                 3.3342146623e-02 1.7599359175e-01 3.8640926308e-03 2.2083942713e-02 1.7559665928e-01 3.9295980982e-03 1.1258203910e-02 3.9693246798e-04 -6.5505467389e-05
18                 3.1093387193e-02 1.8624768070e-01 3.9080418781e-03 2.0242389909e-02 1.8577004239e-01 3.9782905643e-03 1.0850997284e-02 4.7763830709e-04 -7.0248686245e-05
19                 2.8161908411e-02 1.8725177997e-01 3.8472749351e-03 1.7690433465e-02 1.8680854317e-01 3.9201784293e-03 1.0471474946e-02 4.4323680129e-04 -7.2903494128e-05
20                 2.8684481503e-02 1.8517091754e-01 3.7778164277e-03 1.8337858106e-02 1.8468961168e-01 3.8507611259e-03 1.0346623397e-02 4.8130586252e-04 -7.2944698115e-05
21                 3.2363233358e-02 1.8443198202e-01 3.8191460219e-03 2.2020129614e-02 1.8399814107e-01 3.8933281514e-03 1.0343103744e-02 4.3384094666e-04 -7.4182129456e-05
22                 3.2691783956e-02 1.9069080727e-01 3.9117689076e-03 2.2468471749e-02 1.9020068484e-01 3.9902238324e-03 1.0223312207e-02 4.9012242549e-04 -7.8454924775e-05
23                 3.0259591047e-02 1.9649856922e-01 3.9331844333e-03 2.0395820668e-02 1.9604547939e-01 4.0166743444e-03 9.8637703788e-03 4.5308983454e-04 -8.3489911142e-05
24                 2.7968008729e-02 2.0011419456e-01 3.8728614959e-03 1.8433853696e-02 1.9960309525e-01 3.9588151082e-03 9.5341550334e-03 5.1109931005e-04 -8.5953612260e-05
25                 2.9386860457e-02 2.0080113271e-01 3.8250675116e-03 1.9949999855e-02 2.0032755376e-01 3.9112520208e-03 9.4368606023e-03 4.7357894253e-04 -8.6184509187e-05
26                 3.1260729486e-02 2.0228572760e-01 3.8424323345e-03 2.1791553287e-02 2.0177304871e-01 3.9296608915e-03 9.4691761986e-03 5.1267889372e-04 -8.7228556951e-05
27                 3.2154446223e-02 2.0327833173e-01 3.8848913341e-03 2.2724871789e-02 2.0281449659e-01 3.9746579228e-03 9.4295744340e-03 4.6383514335e-04 -8.9766588798e-05
28                 3.0675284568e-02 2.0544847177e-01 3.9108556954e-03 2.1421188112e-02 2.0493355444e-01 4.0046942375e-03 9.2540964563e-03 5.1491732219e-04 -9.3838542180e-05
29                 2.9896263843e-02 2.0739728555e-01 3.9082095869e-03 2.0844122461e-02 2.0691497154e-01 4.0052962901e-03 9.0521413818e-03 4.8231400449e-04 -9.7086703234e-05
30                 2.9741824080e-02 2.1030379831e-01 3.8904014968e-03 2.0805361613e-02 2.0977504492e-01 3.9897303846e-03 8.9364624669e-03 5.2875338444e-04 -9.9328887837e-05
31                 3.0834772871e-02 2.1083242452e-01 3.8801155164e-03 2.1941385743e-02 2.1034889553e-01 3.9809837020e-03 8.8933871272e-03 4.8352899040e-04 -1.0086818560e-04
32                 3.1014327002e-02 2.1225143478e-01 3.8788519717e-03 2.2147763369e-02 2.1172428748e-01 3.9819955066e-03 8.8665636334e-03 5.2714729753e-04 -1.0314353492e-04
33                 3.1114968809e-02 2.1249899935e-01 3.8913641567e-03 2.2310874580e-02 2.1200446895e-01 3.9970506659e-03 8.8040942295e-03 4.9453040633e-04 -1.0568650916e-04
34                 3.0453529599e-02 2.1362163767e-01 3.9097930463e-03 2.1732659242e-02 2.1308174419e-01 4.0186152935e-03 8.7208703570e-03 5.3989347430e-04 -1.0882224714e-04
35                 3.0625967347e-02 2.1311668223e-01 3.9210588001e-03 2.2000181218e-02 2.1261193733e-01 4.0318874003e-03 8.6257861300e-03 5.0474489883e-04 -1.1082860026e-04
36                 3.0525181491e-02 2.1374790600e-01 3.9124267385e-03 2.1956684939e-02 2.1319903597e-01 4.0258866300e-03 8.5684965517e-03 5.4887002568e-04 -1.1345989157e-04
37                 3.0890754791e-02 2.1316110800e-01 3.9013223568e-03 2.2362159179e-02 2.1264347683e-01 4.0168944842e-03 8.5285956119e-03 5.1763116414e-04 -1.1557212737e-04
38                 3.0591750232e-02 2.1388112688e-01 3.9004657314e-03 2.2093339509e-02 2.1332390248e-01 4.0187382011e-03 8.4984107230e-03 5.5722439883e-04 -1.1827246972e-04
39                 3.0843896732e-02 2.1295364715e-01 3.9142804728e-03 2.2395323980e-02 2.1243298986e-01 4.0347202839e-03 8.4485727523e-03 5.2065728819e-04 -1.2043981112e-04
40                 3.0558819214e-02 2.1321697190e-01 3.9233694825e-03 2.2152553233e-02 2.1265680449e-01 4.0463664872e-03 8.4062659806e-03 5.6016741183e-04 -1.2299700467e-04
41                 3.0789637630e-02 2.1193704419e-01 3.9242712772e-03 2.2416329021e-02 2.1140500609e-01 4.0490895564e-03 8.3733086084e-03 5.3203809993e-04 -1.2481827925e-04
42                 3.0463637016e-02 2.1216659737e-01 3.9172452789e-03 2.2117088317e-02 2.1159407370e-01 4.0445348792e-03 8.3465486996e-03 5.7252367539e-04 -1.2728960020e-04
43                 3.0728503857e-02 2.1071756471e-01 3.9162771926e-03 2.2411694832e-02 2.1018182356e-01 4.0453329203e-03 8.3168090255e-03 5.3574114401e-04 -1.2905572768e-04
44                 3.0421720814e-02 2.1056125538e-01 3.9165992595e-03 2.2132147977e-02 2.0998634362e-01 4.0480371130e-03 8.2895728362e-03 5.7491176017e-04 -1.3143785344e-04
45                 3.0639824748e-02 2.0878396646e-01 3.9223096859e-03 2.2367229783e-02 2.0823842240e-01 4.0555016954e-03 8.2725949656e-03 5.4554405857e-04 -1.3319200948e-04
46                 3.0269210369e-02 2.0839624356e-01 3.9232608673e-03 2.2011340287e-02 2.0781198768e-01 4.0586102097e-03 8.2578700828e-03 5.8425587963e-04 -1.3534934245e-04
47                 3.0504564285e-02 2.0635936870e-01 3.9236575933e-03 2.2260963227e-02 2.0581278667e-01 4.0603515459e-03 8.2436010584e-03 5.4658203685e-04 -1.3669395264e-04
48                 3.0168685289e-02 2.0562662824e-01 3.9187229418e-03 2.1944098040e-02 2.0504021789e-01 4.0574744657e-03 8.2245872498e-03 5.8641035052e-04 -1.3875152393e-04
49                 3.0370899619e-02 2.0323704732e-01 3.9172715805e-03 2.2149951168e-02 2.0268008668e-01 4.0573228653e-03 8.2209484514e-03 5.5696063733e-04 -1.4005128474e-04
50                 2.9958201670e-02 2.0238171205e-01 3.9203878282e-03 2.1748776646e-02 2.0178643897e-01 4.0620495030e-03 8.2094250241e-03 5.9527307854e-04 -1.4166167479e-04
51                 3.0189561110e-02 1.9989436022e-01 3.9218184038e-03 2.1989404978e-02 1.9933460588e-01 4.0648295901e-03 8.2001561323e-03 5.5975434166e-04 -1.4301118631e-04
52                 2.9866887268e-02 1.9875466267e-01 3.9166684063e-03 2.1674531102e-02 1.9815836814e-01 4.0615398463e-03 8.1923561653e-03 5.9629452888e-04 -1.4487143997e-04
53                 3.0057656119e-02 1.9607600482e-01 3.9124865380e-03 2.1865172174e-02 1.9551009604e-01 4.0584494395e-03 8.1924839457e-03 5.6590878607e-04 -1.4596290146e-04
54                 2.9671443224e-02 1.9507439170e-01 3.9138713235e-03 2.1486484857e-02 1.9447184007e-01 4.0611871487e-03 8.1849583670e-03 6.0255162925e-04 -1.4731582511e-04
55                 2.9908478528e-02 1.9238737898e-01 3.9151399096e-03 2.1725094953e-02 1.9182218672e-01 4.0635300378e-03 8.1833835744e-03 5.6519226520e-04 -1.4839012814e-04
56                 2.9590559531e-02 1.9133043784e-01 3.9121843027e-03 2.1416503963e-02 1.9072967781e-01 4.0618406718e-03 8.1740555679e-03 6.0076002990e-04 -1.4965636911e-04
57                 2.9800715815e-02 1.8874047307e-01 3.9070642461e-03 2.1625395884e-02 1.8817113814e-01 4.0573261294e-03 8.1753199313e-03 5.6933493492e-04 -1.5026188323e-04
58                 2.9434750704e-02 1.8780202549e-01 3.9088423253e-03 2.1259237172e-02 1.8719913066e-01 4.0599546429e-03 8.1755135327e-03 6.0289483375e-04 -1.5111231760e-04
59                 2.9681463699e-02 1.8531984872e-01 3.9069964884e-03 2.1508915676e-02 1.8475375351e-01 4.0590247229e-03 8.1725480227e-03 5.6609520502e-04 -1.5202823448e-04
60                 2.9418598615e-02 1.8445771954e-01 3.9040079704e-03 2.1253565870e-02 1.8385835489e-01 4.0570466788e-03 8.1650327454e-03 5.9936465085e-04 -1.5303870840e-04
61                 2.9626865462e-02 1.8206838981e-01 3.8992121483e-03 2.1461276546e-02 1.8149922151e-01 4.0526620428e-03 8.1655889154e-03 5.6916830209e-04 -1.5344989456e-04
62                 2.9263971610e-02 1.8143962210e-01 3.9009582165e-03 2.1096720369e-02 1.8083641173e-01 4.0548192770e-03 8.1672512410e-03 6.0321037300e-04 -1.5386106045e-04
63                 2.9529611152e-02 1.7923094514e-01 3.9019609977e-03 2.1364745408e-02 1.7866662311e-01 4.0560169717e-03 8.1648657445e-03 5.6432203164e-04 -1.5405597393e-04
64                 2.9278482547e-02 1.7865139755e-01 3.8979361382e-03 2.1117994759e-02 1.7805756274e-01 4.0521587100e-03 8.1604877881e-03 5.9383481418e-04 -1.5422257183e-04
65                 2.9503655771e-02 1.7647648162e-01 3.8956784429e-03 2.1346315638e-02 1.7591193972e-01 4.0504552032e-03 8.1573401330e-03 5.6454189784e-04 -1.5477676031e-04
66                 2.9148435560e-02 1.7615552955e-01 3.8933944437e-03 2.0988022206e-02 1.7555500763e-01 4.0483700183e-03 8.1604133540e-03 6.0052191778e-04 -1.5497557455e-04
67                 2.9434122140e-02 1.7418215924e-01 3.8963165797e-03 2.1277172194e-02 1.7362417284e-01 4.0513575761e-03 8.1569499464e-03 5.5798640504e-04 -1.5504099648e-04
68                 2.9176033875e-02 1.7382022438e-01 3.8913240011e-03 2.1024091613e-02 1.7322858601e-01 4.0469695865e-03 8.1519422613e-03 5.9163836621e-04 -1.5564558541e-04
69                 2.9415426242e-02 1.7193394424e-01 3.8888918303e-03 2.1267643092e-02 1.7137255936e-01 4.0447484535e-03 8.1477831497e-03 5.6138488242e-04 -1.5585662324e-04
70                 2.9076737945e-02 1.7183080478e-01 3.8860987843e-03 2.0925008207e-02 1.7123555092e-01 4.0420453324e-03 8.1517297375e-03 5.9525385762e-04 -1.5594654806e-04
71                 2.9362298289e-02 1.7007510362e-01 3.8905255461e-03 2.1216711824e-02 1.6951919298e-01 4.0465374169e-03 8.1455864645e-03 5.5591063470e-04 -1.5601187074e-04
72                 2.9113792248e-02 1.6996918908e-01 3.8865998759e-03 2.0972564627e-02 1.6937842054e-01 4.0432060207e-03 8.1412276205e-03 5.9076853612e-04 -1.5660614480e-04
73                 2.9357303981e-02 1.6832002943e-01 3.8831870951e-03 2.1217468852e-02 1.6776284731e-01 4.0401521150e-03 8.1398351289e-03 5.5718211907e-04 -1.5696501989e-04
74                 2.9029466308e-02 1.6837991001e-01 3.8816938557e-03 2.0887913876e-02 1.6778763182e-01 4.0391905249e-03 8.1415524316e-03 5.9227818765e-04 -1.5749666918e-04
75                 2.9329668884e-02 1.6682005729e-01 3.8849920743e-03 2.1192950427e-02 1.6626939333e-01 4.0426854966e-03 8.1367184565e-03 5.5066396190e-04 -1.5769342239e-04
76                 2.9064922074e-02 1.6688739169e-01 3.8808153629e-03 2.0931329856e-02 1.6630027565e-01 4.0389105166e-03 8.1335922181e-03 5.8711603946e-04 -1.5809515365e-04
77                 2.9316189284e-02 1.6541358549e-01 3.8790217409e-03 2.1186427022e-02 1.6485949429e-01 4.0374605404e-03 8.1297622617e-03 5.5409120101e-04 -1.5843879954e-04
78                 2.9020833588e-02 1.6560547638e-01 3.8776562642e-03 2.0888401397e-02 1.6501535971e-01 4.0360995534e-03 8.1324321917e-03 5.9011667239e-04 -1.5844328927e-04
79                 2.9287242522e-02 1.6419737213e-01 3.8798983064e-03 2.1160560624e-02 1.6364750770e-01 4.0381225784e-03 8.1266818984e-03 5.4986442896e-04 -1.5822427206e-04
80                 2.9025590415e-02 1.6447710044e-01 3.8757825743e-03 2.0902680833e-02 1.6389199675e-01 4.0341990019e-03 8.1229095816e-03 5.8510369490e-04 -1.5841642755e-04
81                 2.9303633879e-02 1.6309086457e-01 3.8747930567e-03 2.1182283095e-02 1.6253862490e-01 4.0328759970e-03 8.1213507842e-03 5.5223966791e-04 -1.5808294031e-04
82                 2.9000568338e-02 1.6344796038e-01 3.8754331277e-03 2.0875368553e-02 1.6286109110e-01 4.0333623095e-03 8.1251997852e-03 5.8686927991e-04 -1.5792918176e-04
83                 2.9278443647e-02 1.6214323323e-01 3.8780341074e-03 2.1159911959e-02 1.6159464912e-01 4.0356857708e-03 8.1185316883e-03 5.4858410944e-04 -1.5765166336e-04
84                 2.9017252718e-02 1.6251928491e-01 3.8743066220e-03 2.0901808991e-02 1.6193491951e-01 4.0318138586e-03 8.1154437277e-03 5.8436539932e-04 -1.5750723666e-04
85                 2.9280534128e-02 1.6119526150e-01 3.8741881683e-03 2.1164899152e-02 1.6064421857e-01 4.0312709954e-03 8.1156349757e-03 5.5104292895e-04 -1.5708282703e-04
86                 2.8983126403e-02 1.6167490875e-01 3.8728870187e-03 2.0865227526e-02 1.6109005578e-01 4.0301112260e-03 8.1178988769e-03 5.8485296820e-04 -1.5722420731e-04
87                 2.9276887358e-02 1.6045765734e-01 3.8766838270e-03 2.1164421120e-02 1.5991234769e-01 4.0334786965e-03 8.1124662381e-03 5.4530965631e-04 -1.5679486952e-04
88                 2.9007110268e-02 1.6086582504e-01 3.8727727059e-03 2.0893918131e-02 1.6028613179e-01 4.0297448542e-03 8.1131921370e-03 5.7969324789e-04 -1.5697214829e-04
89                 2.9267928563e-02 1.5963228685e-01 3.8729917653e-03 2.1159540911e-02 1.5908328117e-01 4.0298508576e-03 8.1083876525e-03 5.4900567737e-04 -1.5685909223e-04
90                 2.8969532660e-02 1.6021844718e-01 3.8702870165e-03 2.0857533649e-02 1.5963265185e-01 4.0275776221e-03 8.1119990110e-03 5.8579533525e-04 -1.5729060559e-04
91                 2.9264549353e-02 1.5901029013e-01 3.8742120668e-03 2.1155662780e-02 1.5846662610e-01 4.0311200385e-03 8.1088865724e-03 5.4366403419e-04 -1.5690797170e-04
92                 2.8988869221e-02 1.5956604991e-01 3.8703637841e-03 2.0883035847e-02 1.5898754671e-01 4.0276453889e-03 8.1058333740e-03 5.7850320392e-04 -1.5728160481e-04
93                 2.9278016456e-02 1.5839712634e-01 3.8710408133e-03 2.1174563369e-02 1.5785122875e-01 4.0281738344e-03 8.1034530870e-03 5.4589758210e-04 -1.5713302111e-04
94                 2.8962475171e-02 1.5898487643e-01 3.8696904361e-03 2.0854266131e-02 1.5840363365e-01 4.0270384974e-03 8.1082090401e-03 5.8124277424e-04 -1.5734806124e-04
95                 2.9247348289e-02 1.5782310819e-01 3.8717189031e-03 2.1145234696e-02 1.5728079057e-01 4.0288607457e-03 8.1021135932e-03 5.4231761720e-04 -1.5714184267e-04
96                 2.8992434452e-02 1.5845047169e-01 3.8703858808e-03 2.0894141023e-02 1.5787144949e-01 4.0276638876e-03 8.0982934289e-03 5.7902220379e-04 -1.5727800687e-04
97                 2.9261148646e-02 1.5726194777e-01 3.8693353225e-03 2.1162929430e-02 1.5671639593e-01 4.0263474664e-03 8.0982192157e-03 5.4555184402e-04 -1.5701214386e-04
98                 2.8931193378e-02 1.5799338321e-01 3.8682926292e-03 2.0831500559e-02 1.5741298345e-01 4.0256024090e-03 8.0996928190e-03 5.8039976252e-04 -1.5730977976e-04
99                 2.9242124855e-02 1.5690094019e-01 3.8709323260e-03 2.1145010001e-02 1.5636039426e-01 4.0278221319e-03 8.0971148540e-03 5.4054593257e-04 -1.5688980598e-04
100                2.8985856114e-02 1.5756103924e-01 3.8690142719e-03 2.0889352082e-02 1.5698537408e-01 4.0262400663e-03 8.0965040320e-03 5.7566515305e-04 -1.5722579441e-04
101                2.9259892750e-02 1.5645368409e-01 3.8684630038e-03 2.1165617388e-02 1.5590942104e-01 4.0254856028e-03 8.0942753623e-03 5.4426305304e-04 -1.5702259900e-04
102                2.8940652296e-02 1.5725384237e-01 3.8663394237e-03 2.0843511296e-02 1.5667356859e-01 4.0237338575e-03 8.0971410001e-03 5.8027377759e-04 -1.5739443378e-04
103                2.9234419092e-02 1.5616994842e-01 3.8697618048e-03 2.1136521460e-02 1.5563041245e-01 4.0267375331e-03 8.0978976325e-03 5.3953596886e-04 -1.5697572831e-04
104                2.8970742495e-02 1.5691465104e-01 3.8683369758e-03 2.0877352316e-02 1.5634134210e-01 4.0256386243e-03 8.0933901788e-03 5.7330894252e-04 -1.5730164858e-04
105                2.9271624803e-02 1.5585479960e-01 3.8678988113e-03 2.1177749498e-02 1.5531304404e-01 4.0248774170e-03 8.0938753057e-03 5.4175555990e-04 -1.5697860572e-04
106                2.8957040408e-02 1.5663380515e-01 3.8685001204e-03 2.0859469832e-02 1.5605715715e-01 4.0255747358e-03 8.0975705763e-03 5.7664800784e-04 -1.5707461540e-04
107                2.9227264802e-02 1.5562118195e-01 3.8675970165e-03 2.1135121902e-02 1.5508164184e-01 4.0242515788e-03 8.0921428995e-03 5.3954010507e-04 -1.5665456229e-04
108                2.8967402139e-02 1.5639559883e-01 3.8673111843e-03 2.0878707090e-02 1.5581962338e-01 4.0241309305e-03 8.0886950493e-03 5.7597544749e-04 -1.5681974616e-04
109                2.9247024570e-02 1.5533307910e-01 3.8667494274e-03 2.1153365742e-02 1.5479078230e-01 4.0231981145e-03 8.0936588283e-03 5.4229679149e-04 -1.5644868712e-04
110                2.8943963546e-02 1.5620382593e-01 3.8683691248e-03 2.0849208851e-02 1.5562810050e-01 4.0252007115e-03 8.0947546954e-03 5.7572543750e-04 -1.5683158662e-04
111                2.9247582960e-02 1.5518868749e-01 3.8675176758e-03 2.1154698950e-02 1.5465178102e-01 4.0241562065e-03 8.0928840103e-03 5.3690647070e-04 -1.5663853075e-04
112                2.8964505508e-02 1.5595067237e-01 3.8661934141e-03 2.0874281161e-02 1.5537702194e-01 4.0230879722e-03 8.0902243466e-03 5.7365042999e-04 -1.5689455804e-04
113                2.9243388320e-02 1.5500421279e-01 3.8649059689e-03 2.1154068557e-02 1.5446130687e-01 4.0215474439e-03 8.0893197635e-03 5.4290592128e-04 -1.5664147500e-04
114                2.8953309292e-02 1.5588150271e-01 3.8672561440e-03 2.0861771067e-02 1.5530305013e-01 4.0241668148e-03 8.0915382249e-03 5.7845258106e-04 -1.5691067081e-04
115                2.9230071319e-02 1.5491298425e-01 3.8669438384e-03 2.1139559778e-02 1.5437387843e-01 4.0236875556e-03 8.0905115411e-03 5.3910582371e-04 -1.5674371719e-04
116                2.8967459959e-02 1.5576925840e-01 3.8659591754e-03 2.0881096247e-02 1.5519612717e-01 4.0230222805e-03 8.0863637118e-03 5.7313122094e-04 -1.5706310513e-04
117                2.9257760057e-02 1.5482867300e-01 3.8638172716e-03 2.1169155787e-02 1.5428799813e-01 4.0207787565e-03 8.0886042701e-03 5.4067487407e-04 -1.5696148493e-04
118                2.8963603726e-02 1.5570810494e-01 3.8659508507e-03 2.0871469178e-02 1.5513351305e-01 4.0232849185e-03 8.0921345478e-03 5.7459189080e-04 -1.5733406775e-04
119                2.9238380405e-02 1.5482056980e-01 3.8660922365e-03 2.1152563001e-02 1.5428086053e-01 4.0232262432e-03 8.0858174031e-03 5.3970926644e-04 -1.5713400662e-04
120                2.8968758268e-02 1.5567599561e-01 3.8653748470e-03 2.0882442598e-02 1.5510109806e-01 4.0229224151e-03 8.0863156702e-03 5.7489754990e-04 -1.5754756801e-04
121                2.9252287321e-02 1.5474230117e-01 3.8635079853e-03 2.1164300216e-02 1.5420234669e-01 4.0207933447e-03 8.0879871051e-03 5.3995448031e-04 -1.5728535937e-04
122                2.8957711518e-02 1.5564505656e-01 3.8647028022e-03 2.0868228412e-02 1.5506992383e-01 4.0223393273e-03 8.0894831062e-03 5.7513273405e-04 -1.5763652505e-04
123                2.9248205866e-02 1.5476099504e-01 3.8656172104e-03 2.1161591052e-02 1.5422473950e-01 4.0227490402e-03 8.0866148139e-03 5.3625553973e-04 -1.5713182981e-04
124                2.8979256847e-02 1.5558560082e-01 3.8646542805e-03 2.0892666318e-02 1.5501403012e-01 4.0217279296e-03 8.0865905282e-03 5.7157069249e-04 -1.5707364908e-04
125                2.9265792773e-02 1.5471658946e-01 3.8641248452e-03 2.1181122807e-02 1.5417529112e-01 4.0211033956e-03 8.0846699660e-03 5.4129833401e-04 -1.5697855044e-04
126                2.8969938062e-02 1.5563603141e-01 3.8659941925e-03 2.0881074986e-02 1.5505921247e-01 4.0228934926e-03 8.0888630758e-03 5.7681894400e-04 -1.5689930006e-04
127                2.9244045971e-02 1.5472696629e-01 3.8661483500e-03 2.1157081554e-02 1.5419027500e-01 4.0226258180e-03 8.0869644175e-03 5.3669128782e-04 -1.5647746806e-04
128                2.8961534782e-02 1.5561355479e-01 3.8656059905e-03 2.0877905097e-02 1.5504142607e-01 4.0221861905e-03 8.0836296843e-03 5.7212871703e-04 -1.5658020005e-04
129                2.9279103199e-02 1.5464994650e-01 3.8643769158e-03 2.1191473360e-02 1.5411222125e-01 4.0206602205e-03 8.0876298390e-03 5.3772525337e-04 -1.5628330476e-04
130                2.8955427706e-02 1.5551121072e-01 3.8668115372e-03 2.0864813933e-02 1.5493705497e-01 4.0229224206e-03 8.0906137730e-03 5.7415574868e-04 -1.5611088342e-04
131                2.9238222195e-02 1.5457749410e-01 3.8665343215e-03 2.1153821969e-02 1.5403876784e-01 4.0222663459e-03 8.0844002255e-03 5.3872626094e-04 -1.5573202438e-04
132                2.8975551890e-02 1.5546950308e-01 3.8661426461e-03 2.0891944869e-02 1.5489560217e-01 4.0216900826e-03 8.0836070207e-03 5.7390091352e-04 -1.5554743652e-04
133                2.9241994324e-02 1.5450127715e-01 3.8662469772e-03 2.1157089248e-02 1.5396108950e-01 4.0213522325e-03 8.0849050761e-03 5.4018764861e-04 -1.5510525536e-04
134                2.8953302924e-02 1.5540280159e-01 3.8667750756e-03 2.0864959584e-02 1.5482899358e-01 4.0219622166e-03 8.0883433394e-03 5.7380800987e-04 -1.5518714102e-04
135                2.9255485720e-02 1.5441387364e-01 3.8694406956e-03 2.1170547305e-02 1.5387794963e-01 4.0240389207e-03 8.0849384141e-03 5.3592401180e-04 -1.5459822503e-04
136                2.8957896035e-02 1.5529450471e-01 3.8663320762e-03 2.0874175532e-02 1.5472108172e-01 4.0209691753e-03 8.0837205028e-03 5.7342299416e-04 -1.5463709902e-04
137                2.9244002378e-02 1.5437037660e-01 3.8681651254e-03 2.1164301559e-02 1.5382839004e-01 4.0222547919e-03 8.0797008185e-03 5.4198655661e-04 -1.5408966657e-04
138                2.8940765971e-02 1.5529353688e-01 3.8655841071e-03 2.0855890387e-02 1.5471553328e-01 4.0199648769e-03 8.0848755843e-03 5.7800360038e-04 -1.5438076980e-04
139                2.9225914030e-02 1.5438600510e-01 3.8700875918e-03 2.1141445002e-02 1.5384918144e-01 4.0239208315e-03 8.0844690284e-03 5.3682366117e-04 -1.5383323964e-04
140                2.8968891502e-02 1.5529494934e-01 3.8665595036e-03 2.0885570517e-02 1.5472325319e-01 4.0208399943e-03 8.0833209841e-03 5.7169614387e-04 -1.5428049067e-04
141                2.9269038970e-02 1.5434807849e-01 3.8687240727e-03 2.1185818630e-02 1.5381049039e-01 4.0229854024e-03 8.0832203400e-03 5.3758809629e-04 -1.5426132970e-04
142                2.8947473029e-02 1.5525892438e-01 3.8666533482e-03 2.0860564797e-02 1.5468420333e-01 4.0213930104e-03 8.0869082313e-03 5.7472104626e-04 -1.5473966212e-04
143                2.9227262185e-02 1.5435669084e-01 3.8685155754e-03 2.1146479047e-02 1.5381769205e-01 4.0232451762e-03 8.0807831381e-03 5.3899879363e-04 -1.5472960072e-04
144                2.8969850512e-02 1.5524489312e-01 3.8652253602e-03 2.0889362515e-02 1.5467083462e-01 4.0206184530e-03 8.0804879971e-03 5.7405850673e-04 -1.5539309283e-04
145                2.9236463257e-02 1.5430010609e-01 3.8657518576e-03 2.1154301910e-02 1.5376117452e-01 4.0213282842e-03 8.0821613470e-03 5.3893157433e-04 -1.5557642659e-04
146                2.8940320943e-02 1.5522198398e-01 3.8653589855e-03 2.0855240912e-02 1.5464809855e-01 4.0217580396e-03 8.0850800314e-03 5.7388543380e-04 -1.5639905407e-04
147                2.9253041313e-02 1.5426805699e-01 3.8679141779e-03 2.1168323072e-02 1.5373343234e-01 4.0243838237e-03 8.0847182406e-03 5.3462464142e-04 -1.5646964577e-04
148                2.8955979359e-02 1.5515478476e-01 3.8643876773e-03 2.0872986570e-02 1.5458298405e-01 4.0213667138e-03 8.0829927896e-03 5.7180070649e-04 -1.5697903650e-04
149                2.9241301972e-02 1.5422674589e-01 3.8651218523e-03 2.1160848161e-02 1.5368573794e-01 4.0221040839e-03 8.0804538109e-03 5.4100795204e-04 -1.5698223163e-04
150                2.8953532276e-02 1.5514811010e-01 3.8637514324e-03 2.0867273988e-02 1.5457175573e-01 4.0211668557e-03 8.0862582876e-03 5.7635437044e-04 -1.5741542328e-04
151                2.9229679855e-02 1.5423653379e-01 3.8674080503e-03 2.1145063399e-02 1.5370117770e-01 4.0246358332e-03 8.0846164562e-03 5.3535608664e-04 -1.5722778289e-04
152                2.8962875939e-02 1.5517067018e-01 3.8634690684e-03 2.0880744044e-02 1.5459965785e-01 4.0209393559e-03 8.0821318947e-03 5.7101232987e-04 -1.5747028748e-04
153                2.9273405302e-02 1.5422672977e-01 3.8656741908e-03 2.1190784695e-02 1.5368895137e-01 4.0226895271e-03 8.0826206064e-03 5.3777839992e-04 -1.5701533629e-04
154                2.8943168640e-02 1.5517271242e-01 3.8638210096e-03 2.0856784717e-02 1.5459732266e-01 4.0208476669e-03 8.0863839233e-03 5.7538976139e-04 -1.5702665732e-04
155                2.9236853518e-02 1.5429708315e-01 3.8675314229e-03 2.1155742377e-02 1.5375885135e-01 4.0240908003e-03 8.0811111411e-03 5.3823180578e-04 -1.5655937736e-04
156                2.8977502168e-02 1.5525667816e-01 3.8643626318e-03 2.0895188375e-02 1.5468199179e-01 4.0210025615e-03 8.0823137927e-03 5.7468636334e-04 -1.5663992967e-04
157                2.9264343881e-02 1.5435066571e-01 3.8660906682e-03 2.1180819529e-02 1.5381197630e-01 4.0221260675e-03 8.0835243528e-03 5.3868941211e-04 -1.5603539939e-04
158                2.8954495606e-02 1.5529588961e-01 3.8661604594e-03 2.0868683159e-02 1.5472153115e-01 4.0220204321e-03 8.0858124469e-03 5.7435846221e-04 -1.5585997269e-04
159                2.9249161895e-02 1.5441285403e-01 3.8682009453e-03 2.1165052234e-02 1.5387739673e-01 4.0236693900e-03 8.0841096617e-03 5.3545729683e-04 -1.5546844465e-04
160                2.8978542890e-02 1.5532060890e-01 3.8677395297e-03 2.0894209555e-02 1.5474901529e-01 4.0230747756e-03 8.0843333353e-03 5.7159361325e-04 -1.5533524590e-04
161                2.9266145719e-02 1.5440757044e-01 3.8660499035e-03 2.1183585959e-02 1.5386695092e-01 4.0210952838e-03 8.0825597605e-03 5.4061951854e-04 -1.5504538034e-04
162                2.8966012804e-02 1.5534800115e-01 3.8680312243e-03 2.0880801126e-02 1.5477223660e-01 4.0231424847e-03 8.0852116777e-03 5.7576454882e-04 -1.5511126035e-04
163                2.9244268307e-02 1.5444813739e-01 3.8679970999e-03 2.1159834261e-02 1.5391057008e-01 4.0227656482e-03 8.0844340460e-03 5.3756731394e-04 -1.5476854824e-04
164                2.8977256362e-02 1.5538879994e-01 3.8677129333e-03 2.0895612303e-02 1.5481675042e-01 4.0226860535e-03 8.0816440582e-03 5.7204952146e-04 -1.5497312016e-04
165                2.9277543376e-02 1.5443618537e-01 3.8658892729e-03 2.1194189399e-02 1.5389707174e-01 4.0206698533e-03 8.0833539772e-03 5.3911363054e-04 -1.5478058046e-04
166                2.8964000397e-02 1.5536166061e-01 3.8679299953e-03 2.0877382093e-02 1.5478756432e-01 4.0228748134e-03 8.0866183044e-03 5.7409628988e-04 -1.5494481819e-04
167                2.9243418590e-02 1.5448865900e-01 3.8688987117e-03 2.1162182816e-02 1.5395016198e-01 4.0237171953e-03 8.0812357743e-03 5.3849701694e-04 -1.5481848361e-04
168                2.8985739041e-02 1.5542772369e-01 3.8668799473e-03 2.0905035703e-02 1.5485410576e-01 4.0220398284e-03 8.0807033386e-03 5.7361793674e-04 -1.5515988111e-04
169                2.9267418875e-02 1.5448801624e-01 3.8651409245e-03 2.1183872972e-02 1.5394772783e-01 4.0203826781e-03 8.0835459024e-03 5.4028840843e-04 -1.5524175359e-04
170                2.8968434000e-02 1.5547005282e-01 3.8673515685e-03 2.0883895587e-02 1.5489586242e-01 4.0229987762e-03 8.0845384134e-03 5.7419040054e-04 -1.5564720772e-04
171                2.9257948518e-02 1.5457973371e-01 3.8679384934e-03 2.1175448525e-02 1.5404335559e-01 4.0234466088e-03 8.0824999924e-03 5.3637811969e-04 -1.5550811546e-04
172                2.8985706459e-02 1.5546417104e-01 3.8666222201e-03 2.0902385582e-02 1.5489214809e-01 4.0223587832e-03 8.0833208766e-03 5.7202294928e-04 -1.5573656316e-04