# Moment          
# CofR            : (0.0000000000e+00 0.0000000000e+00 0.0000000000e+00)
#
# Time            	total_x total_y total_z	pressure_x pressure_y pressure_z	viscous_x viscous_y viscous_z
1                  -8.1620990875e-03 8.0136129271e-02 1.5845975758e-02 -8.1906278149e-03 7.4080555381e-02 1.5900421163e-02 2.8528727328e-05 6.0555738902e-03 -5.4445405002e-05
2                  -2.8330141325e-02 1.9603445010e-02 2.7983226352e-03 -2.8097231425e-02 1.4913000742e-02 2.9704641373e-03 -2.3290990000e-04 4.6904442672e-03 -1.7214150210e-04
3                  -2.5989500385e-02 -1.5665721036e-02 -4.7438184042e-03 -2.5848921608e-02 -1.9590761800e-02 -4.6432909602e-03 -1.4057877638e-04 3.9250407646e-03 -1.0052744394e-04
4                  -7.5476408296e-03 -5.2967233187e-03 2.9628810067e-04 -7.5829511846e-03 -8.9797782420e-03 3.1947280079e-04 3.5310355005e-05 3.6830549233e-03 -2.3184700114e-05
5                  -1.2083894225e-02 1.1410851010e-02 4.0847476944e-03 -1.2090661209e-02 7.9954670969e-03 4.1146987850e-03 6.7669847241e-06 3.4153839127e-03 -2.9951090588e-05
6                  -2.4620939004e-02 1.2767505390e-02 2.4892122391e-03 -2.4553800453e-02 9.6607851092e-03 2.5468370609e-03 -6.7138550440e-05 3.1067202806e-03 -5.7624821714e-05
7                  -2.2858892888e-02 6.1152415232e-03 4.8826860939e-04 -2.2779587083e-02 3.3136057518e-03 5.4820621531e-04 -7.9305805566e-05 2.8016357714e-03 -5.9937605921e-05
8                  -1.8317936505e-02 3.4527681860e-03 7.7588325078e-04 -1.8249024965e-02 8.8613894709e-04 8.2785512714e-04 -6.8911539978e-05 2.5666292390e-03 -5.1971876355e-05
9                  -2.0972120097e-02 5.0991459093e-03 1.5026396889e-03 -2.0915990358e-02 2.7213030748e-03 1.5456273417e-03 -5.6129739234e-05 2.3778428344e-03 -4.2987652781e-05
10                 -2.4116819112e-02 5.7051211849e-03 1.0253743303e-03 -2.4055185379e-02 3.4855724228e-03 1.0703615740e-03 -6.1633732277e-05 2.2195487622e-03 -4.4987243645e-05
11                 -2.2147320700e-02 4.9452703711e-03 4.3312621213e-04 -2.2091135376e-02 2.8347085402e-03 4.7569232283e-04 -5.6185323836e-05 2.1105618309e-03 -4.2566110704e-05
12                 -2.1239177901e-02 4.8581833647e-03 6.3048894888e-04 -2.1171520497e-02 2.8287397988e-03 6.7427563771e-04 -6.7657403897e-05 2.0294435659e-03 -4.3786688834e-05
13                 -2.3031842212e-02 5.3339880737e-03 1.0980373858e-03 -2.2968380871e-02 3.3885171793e-03 1.1384342090e-03 -6.3461341116e-05 1.9454708944e-03 -4.0396823245e-05
14                 -2.4570351741e-02 4.9300457493e-03 8.8415064669e-04 -2.4496564293e-02 3.0696148383e-03 9.2622304649e-04 -7.3787447178e-05 1.8604309109e-03 -4.2072399793e-05
15                 -2.3568741797e-02 4.4910927541e-03 4.8966264043e-04 -2.3504028282e-02 2.6855939125e-03 5.2944597071e-04 -6.4713515229e-05 1.8054988416e-03 -3.9783330276e-05
16                 -2.3163154192e-02 4.7236448158e-03 4.6473001743e-04 -2.3093279062e-02 2.9433493378e-03 5.0621358742e-04 -6.9875129758e-05 1.7802954780e-03 -4.1483569997e-05
17                 -2.4224946735e-02 5.1338378193e-03 8.3750835943e-04 -2.4160716397e-02 3.3872230149e-03 8.7630601163e-04 -6.4230338832e-05 1.7466148044e-03 -3.8797652200e-05
18                 -2.5579622765e-02 4.8003915248e-03 9.1643026792e-04 -2.5503781006e-02 3.1128864614e-03 9.5647107067e-04 -7.5841758885e-05 1.6875050635e-03 -4.0040802751e-05
19                 -2.5571687786e-02 4.3756630475e-03 7.5438524659e-04 -2.5500890111e-02 2.7424441860e-03 7.9209694565e-04 -7.0797674758e-05 1.6332188615e-03 -3.7711699063e-05
20                 -2.5260593131e-02 4.4679556109e-03 5.3858511456e-04 -2.5184104705e-02 2.8548182124e-03 5.7854127115e-04 -7.6488426054e-05 1.6131373985e-03 -3.9956156586e-05
21                 -2.5229638068e-02 5.0071133218e-03 6.2369122773e-04 -2.5160229840e-02 3.3950694778e-03 6.6247541874e-04 -6.9408227767e-05 1.6120438440e-03 -3.8784191010e-05
22                 -2.6132983797e-02 5.0424285016e-03 7.6451195932e-04 -2.6055505452e-02 3.4489526275e-03 8.0467657473e-04 -7.7478344988e-05 1.5934758741e-03 -4.0164615404e-05
23                 -2.6850350899e-02 4.6736071347e-03 8.6143093125e-04 -2.6778432189e-02 3.1310220305e-03 8.9914577624e-04 -7.1918710274e-05 1.5425851043e-03 -3.7714844982e-05
24                 -2.7238277345e-02 4.3458631521e-03 7.6522642124e-04 -2.7157336138e-02 2.8513537795e-03 8.0438275878e-04 -8.0941207335e-05 1.4945093726e-03 -3.9156337537e-05
25                 -2.7287112449e-02 4.5634729306e-03 7.2600263431e-04 -2.7211638020e-02 3.0825354163e-03 7.6411654137e-04 -7.5474428866e-05 1.4809375143e-03 -3.8113907058e-05
26                 -2.7500827848e-02 4.8423628331e-03 6.5182929910e-04 -2.7419850307e-02 3.3582533609e-03 6.9191153820e-04 -8.0977541733e-05 1.4841094722e-03 -4.0082239104e-05
27                 -2.7639445061e-02 4.9628522640e-03 6.8935697239e-04 -2.7565825348e-02 3.4842970190e-03 7.2766534524e-04 -7.3619712186e-05 1.4785552450e-03 -3.8308372847e-05
28                 -2.7883822292e-02 4.7388957480e-03 6.5525364367e-04 -2.7802707061e-02 3.2866810323e-03 6.9515230982e-04 -8.1115231248e-05 1.4522147157e-03 -3.9898666143e-05
29                 -2.8083685694e-02 4.6190686886e-03 6.8425547439e-04 -2.8007201894e-02 3.1957802074e-03 7.2271864433e-04 -7.6483800002e-05 1.4232884812e-03 -3.8463169932e-05
30                 -2.8438373088e-02 4.6072643727e-03 6.4293578560e-04 -2.8355231646e-02 3.2011790804e-03 6.8297515076e-04 -8.3141441321e-05 1.4060852923e-03 -4.0039365163e-05
31                 -2.8492241688e-02 4.7716247256e-03 6.4954742287e-04 -2.8415937949e-02 3.3704725664e-03 6.8776140337e-04 -7.6303738971e-05 1.4011521592e-03 -3.8213980499e-05
32                 -2.8651653889e-02 4.7980021247e-03 5.9355485129e-04 -2.8569050360e-02 3.4007105423e-03 6.3365344680e-04 -8.2603529050e-05 1.3972915824e-03 -4.0098595511e-05
33                 -2.8660430142e-02 4.8022325547e-03 5.9175878506e-04 -2.8582796687e-02 3.4134552523e-03 6.3032874881e-04 -7.7633455818e-05 1.3887773024e-03 -3.8569963744e-05
34                 -2.8780542284e-02 4.7081478441e-03 5.3658820864e-04 -2.8696515554e-02 3.3317567448e-03 5.7652070764e-04 -8.4026729623e-05 1.3763910993e-03 -3.9932499004e-05
35                 -2.8679112367e-02 4.7337318414e-03 5.3092362399e-04 -2.8600233499e-02 3.3699014252e-03 5.6879802698e-04 -7.8878867884e-05 1.3638304162e-03 -3.7874402987e-05
36                 -2.8728943751e-02 4.7230541749e-03 4.7715230374e-04 -2.8643478228e-02 3.3671890742e-03 5.1670528903e-04 -8.5465523330e-05 1.3558651007e-03 -3.9552985294e-05
37                 -2.8626175564e-02 4.7694780248e-03 4.7641968244e-04 -2.8545532173e-02 3.4186485138e-03 5.1438166126e-04 -8.0643390731e-05 1.3508295110e-03 -3.7961978827e-05
38                 -2.8688563865e-02 4.7294303364e-03 4.3492428474e-04 -2.8602294813e-02 3.3829619182e-03 4.7454566248e-04 -8.6269051362e-05 1.3464684183e-03 -3.9621377736e-05
39                 -2.8537204373e-02 4.7624819173e-03 4.3359690613e-04 -2.8456117320e-02 3.4224632822e-03 4.7117625090e-04 -8.1087053200e-05 1.3400186351e-03 -3.7579344771e-05
40                 -2.8553635135e-02 4.7241360219e-03 3.8539327105e-04 -2.8466940473e-02 3.3900106710e-03 4.2442939419e-04 -8.6694661445e-05 1.3341253509e-03 -3.9036123138e-05
41                 -2.8358514470e-02 4.7528939221e-03 3.8655200582e-04 -2.8276127455e-02 3.4229917200e-03 4.2387577340e-04 -8.2387014252e-05 1.3299022021e-03 -3.7323767576e-05
42                 -2.8372572946e-02 4.7112202046e-03 3.4097557843e-04 -2.8284404907e-02 3.3852528586e-03 3.7991243524e-04 -8.8168038570e-05 1.3259673460e-03 -3.8936856810e-05
43                 -2.8157401490e-02 4.7451664553e-03 3.4264014342e-04 -2.8074357745e-02 3.4226874361e-03 3.7950968227e-04 -8.3043745618e-05 1.3224790191e-03 -3.6869538844e-05
44                 -2.8128207385e-02 4.7042175313e-03 2.9470382350e-04 -2.8039546541e-02 3.3857288020e-03 3.3317545424e-04 -8.8660843940e-05 1.3184887293e-03 -3.8471630736e-05
45                 -2.7871784615e-02 4.7318726201e-03 2.9169492782e-04 -2.7787455938e-02 3.4154384024e-03 3.2838471091e-04 -8.4328677109e-05 1.3164342177e-03 -3.6689783093e-05
46                 -2.7811961398e-02 4.6825858424e-03 2.4329777252e-04 -2.7722221289e-02 3.3686997554e-03 2.8154206591e-04 -8.9740108799e-05 1.3138860870e-03 -3.8244293395e-05
47                 -2.7528423766e-02 4.7144956652e-03 2.4100530507e-04 -2.7443998526e-02 3.4016885202e-03 2.7711754878e-04 -8.4425240169e-05 1.3128071450e-03 -3.6112243703e-05
48                 -2.7438665923e-02 4.6703499480e-03 1.9105486701e-04 -2.7348615487e-02 3.3607315085e-03 2.2868187254e-04 -9.0050435659e-05 1.3096184395e-03 -3.7627005527e-05
49                 -2.7108920452e-02 4.6971950848e-03 1.9034031190e-04 -2.7023199086e-02 3.3872613119e-03 2.2620328942e-04 -8.5721365979e-05 1.3099337728e-03 -3.5862977520e-05
50                 -2.7001864661e-02 4.6407155395e-03 1.4233545685e-04 -2.6910826370e-02 3.3332123822e-03 1.7960206243e-04 -9.1038291081e-05 1.3075031573e-03 -3.7266605574e-05
51                 -2.6666421417e-02 4.6724920755e-03 1.4227502434e-04 -2.6580352751e-02 3.3654495590e-03 1.7753344410e-04 -8.6068666216e-05 1.3070425165e-03 -3.5258419759e-05
52                 -2.6528527677e-02 4.6315139798e-03 9.9192343718e-05 -2.6437454547e-02 3.3261635502e-03 1.3580212684e-04 -9.1073130506e-05 1.3053504296e-03 -3.6609783117e-05
53                 -2.6167763452e-02 4.6568343158e-03 1.0296702768e-04 -2.6081020543e-02 3.3508258696e-03 1.3791460515e-04 -8.6742908925e-05 1.3060084462e-03 -3.4947577472e-05
54                 -2.6054796514e-02 4.6045520555e-03 6.1625453559e-05 -2.5963023828e-02 3.3005913424e-03 9.7917187044e-05 -9.1772686334e-05 1.3039607131e-03 -3.6291733485e-05
55                 -2.5693302954e-02 4.6369642335e-03 7.3844580753e-05 -2.5606802503e-02 3.3322683090e-03 1.0819792953e-04 -8.6500450997e-05 1.3046959245e-03 -3.4353348773e-05
56                 -2.5573886215e-02 4.5940070314e-03 3.9096034272e-05 -2.5482358059e-02 3.2912569758e-03 7.4818149776e-05 -9.1528156190e-05 1.3027500556e-03 -3.5722115504e-05
57                 -2.5229414547e-02 4.6234588049e-03 5.2619647983e-05 -2.5142494452e-02 3.3199551779e-03 8.6685898550e-05 -8.6920094560e-05 1.3035036269e-03 -3.4066250567e-05
58                 -2.5122666286e-02 4.5751091817e-03 2.3117083746e-05 -2.5031071919e-02 3.2722794423e-03 5.8540184577e-05 -9.1594367246e-05 1.3028297394e-03 -3.5423100831e-05
59                 -2.4797522486e-02 4.6083045393e-03 4.1333527374e-05 -2.4711073604e-02 3.3052845640e-03 7.4862884061e-05 -8.6448882373e-05 1.3030199753e-03 -3.3529356686e-05
60                 -2.4706381268e-02 4.5735444569e-03 1.4695981887e-05 -2.4615189294e-02 3.2722872078e-03 4.9583925109e-05 -9.1191973663e-05 1.3012572490e-03 -3.4887943222e-05
61                 -2.4393903745e-02 4.6011476810e-03 3.4457363779e-05 -2.4307051006e-02 3.2993341674e-03 6.7801074152e-05 -8.6852738739e-05 1.3018135137e-03 -3.3343710373e-05
62                 -2.4331328068e-02 4.5521227789e-03 9.4349610116e-06 -2.4239733028e-02 3.2508980340e-03 4.4251719567e-05 -9.1595040406e-05 1.3012247449e-03 -3.4816758556e-05
63                 -2.4045766770e-02 4.5892048094e-03 3.3525267587e-05 -2.3959550236e-02 3.2878867585e-03 6.6418237127e-05 -8.6216533839e-05 1.3013180510e-03 -3.2892969540e-05
64                 -2.3983747888e-02 4.5560275673e-03 1.2053102177e-05 -2.3893473675e-02 3.2555627428e-03 4.6243798985e-05 -9.0274212271e-05 1.3004648245e-03 -3.4190696808e-05
65                 -2.3700306363e-02 4.5843227984e-03 3.6667469182e-05 -2.3614237893e-02 3.2840399293e-03 6.9419866811e-05 -8.6068469352e-05 1.3002828691e-03 -3.2752397629e-05
66                 -2.3674875976e-02 4.5369262143e-03 1.2630172306e-05 -2.3583557506e-02 3.2370210596e-03 4.6997044941e-05 -9.1318470285e-05 1.2999051547e-03 -3.4366872635e-05
67                 -2.3412006464e-02 4.5768096153e-03 3.9008934356e-05 -2.3326780843e-02 3.2769038272e-03 7.1289470827e-05 -8.5225620348e-05 1.2999057881e-03 -3.2280536471e-05
68                 -2.3378797556e-02 4.5404888958e-03 1.8998184172e-05 -2.3288668371e-02 3.2415230567e-03 5.2823906022e-05 -9.0129185275e-05 1.2989658391e-03 -3.3825721851e-05
69                 -2.3136118062e-02 4.5729984012e-03 4.5093277881e-05 -2.3050409513e-02 3.2744535383e-03 7.7407467948e-05 -8.5708549266e-05 1.2985448628e-03 -3.2314190067e-05
70                 -2.3132382086e-02 4.5281605422e-03 2.4582964274e-05 -2.3041846980e-02 3.2297456461e-03 5.8475977200e-05 -9.0535106060e-05 1.2984148961e-03 -3.3893012926e-05
71                 -2.2904514218e-02 4.5664026418e-03 5.2352974195e-05 -2.2819444384e-02 3.2684332476e-03 8.4333703804e-05 -8.5069834073e-05 1.2979693943e-03 -3.1980729609e-05
72                 -2.2904850090e-02 4.5333122754e-03 3.3485224430e-05 -2.2814691336e-02 3.2363265827e-03 6.7067686411e-05 -9.0158753492e-05 1.2969856928e-03 -3.3582461981e-05
73                 -2.2693270694e-02 4.5662290365e-03 5.9581474711e-05 -2.2608119405e-02 3.2690001141e-03 9.1522629946e-05 -8.5151288860e-05 1.2972289224e-03 -3.1941155235e-05
74                 -2.2709893243e-02 4.5219913928e-03 4.0823689710e-05 -2.2619742138e-02 3.2252186157e-03 7.4439429223e-05 -9.0151105044e-05 1.2967727771e-03 -3.3615739514e-05
75                 -2.2508106223e-02 4.5626006972e-03 6.9833873028e-05 -2.2423836488e-02 3.2661726394e-03 1.0140619575e-04 -8.4269735440e-05 1.2964280579e-03 -3.1572322725e-05
76                 -2.2521241903e-02 4.5259167262e-03 5.0906910496e-05 -2.2431639431e-02 3.2300495087e-03 8.4202090118e-05 -8.9602472018e-05 1.2958672176e-03 -3.3295179622e-05
77                 -2.2335382706e-02 4.5586366859e-03 7.5397516977e-05 -2.2250792199e-02 3.2630072113e-03 1.0706973266e-04 -8.4590507452e-05 1.2956294746e-03 -3.1672215683e-05
78                 -2.2362694780e-02 4.5228830085e-03 5.7316286541e-05 -2.2272851298e-02 3.2275017137e-03 9.0684258061e-05 -8.9843482275e-05 1.2953812948e-03 -3.3367971520e-05
79                 -2.2174356535e-02 4.5563745391e-03 8.6365560906e-05 -2.2090054023e-02 3.2614519103e-03 1.1778385182e-04 -8.4302512043e-05 1.2949226288e-03 -3.1418290910e-05
80                 -2.2220442012e-02 4.5183277208e-03 6.6525794050e-05 -2.2130981665e-02 3.2242169430e-03 9.9617175889e-05 -8.9460347546e-05 1.2941107778e-03 -3.3091381840e-05
81                 -2.2041778854e-02 4.5564034154e-03 9.4065258090e-05 -2.1957213022e-02 3.2621493949e-03 1.2554901615e-04 -8.4565832747e-05 1.2942540205e-03 -3.1483758065e-05
82                 -2.2085493861e-02 4.5192926118e-03 7.4013872503e-05 -2.1996038943e-02 3.2251081967e-03 1.0715858607e-04 -8.9454917837e-05 1.2941844152e-03 -3.3144713572e-05
83                 -2.1913349240e-02 4.5534083879e-03 1.0189381667e-04 -2.1829097279e-02 3.2601133956e-03 1.3319683662e-04 -8.4251960420e-05 1.2932949923e-03 -3.1303019943e-05
84                 -2.1966621234e-02 4.5168705210e-03 8.0926402894e-05 -2.1877042078e-02 3.2242947645e-03 1.1391716450e-04 -8.9579155755e-05 1.2925757565e-03 -3.2990761606e-05
85                 -2.1791400851e-02 4.5514955516e-03 1.0802393460e-04 -2.1706907396e-02 3.2583744961e-03 1.3939817233e-04 -8.4493455258e-05 1.2931210555e-03 -3.1374237731e-05
86                 -2.1853886576e-02 4.5137059791e-03 8.6182508138e-05 -2.1764623292e-02 3.2211085278e-03 1.1919559233e-04 -8.9263283409e-05 1.2925974514e-03 -3.3013084195e-05
87                 -2.1696403699e-02 4.5528434747e-03 1.1389054689e-04 -2.1612586864e-02 3.2608014885e-03 1.4499475030e-04 -8.3816835840e-05 1.2920419862e-03 -3.1104203407e-05
88                 -2.1744081364e-02 4.5146008612e-03 9.3906267079e-05 -2.1655253452e-02 3.2223954101e-03 1.2666062427e-04 -8.8827911387e-05 1.2922054511e-03 -3.2754357194e-05
89                 -2.1585075092e-02 4.5481345839e-03 1.1922911067e-04 -2.1500811439e-02 3.2562964902e-03 1.5050832032e-04 -8.4263653300e-05 1.2918380937e-03 -3.1279209654e-05
90                 -2.1664396053e-02 4.5103380830e-03 9.6132207807e-05 -2.1574718529e-02 3.2187906155e-03 1.2914040251e-04 -8.9677524303e-05 1.2915474675e-03 -3.3008194707e-05
91                 -2.1494167081e-02 4.5503866619e-03 1.2579629051e-04 -2.1410506222e-02 3.2585967205e-03 1.5678903371e-04 -8.3660859006e-05 1.2917899413e-03 -3.0992743193e-05
92                 -2.1575844607e-02 4.5099562905e-03 1.0266552274e-04 -2.1487152482e-02 3.2191046346e-03 1.3534715027e-04 -8.8692124849e-05 1.2908516559e-03 -3.2681627531e-05
93                 -2.1420143532e-02 4.5504082291e-03 1.2903400046e-04 -2.1336291019e-02 3.2592522854e-03 1.6013601257e-04 -8.3852513214e-05 1.2911559437e-03 -3.1102012111e-05
94                 -2.1492575737e-02 4.5088895243e-03 1.0651886176e-04 -2.1403703340e-02 3.2177047298e-03 1.3930566246e-04 -8.8872397016e-05 1.2911847946e-03 -3.2786800700e-05
95                 -2.1331989064e-02 4.5457452774e-03 1.3316126517e-04 -2.1248496665e-02 3.2549770055e-03 1.6407960419e-04 -8.3492398692e-05 1.2907682719e-03 -3.0918339013e-05
96                 -2.1419798427e-02 4.5103938155e-03 1.0829355221e-04 -2.1330783810e-02 3.2207740681e-03 1.4093777179e-04 -8.9014617400e-05 1.2896197475e-03 -3.2644219578e-05
97                 -2.1253682122e-02 4.5459832408e-03 1.3665788118e-04 -2.1169718517e-02 3.2554963573e-03 1.6771126364e-04 -8.3963605762e-05 1.2904868835e-03 -3.1053382458e-05
98                 -2.1356781680e-02 4.5016642592e-03 1.1173515007e-04 -2.1268017251e-02 3.2118425786e-03 1.4446785221e-04 -8.8764429189e-05 1.2898216806e-03 -3.2732702137e-05
99                 -2.1204905876e-02 4.5450572868e-03 1.4045818046e-04 -2.1121585914e-02 3.2549662740e-03 1.7127590748e-04 -8.3319962050e-05 1.2900910128e-03 -3.0817727023e-05
100                -2.1293897982e-02 4.5092554837e-03 1.1675770186e-04 -2.1205518622e-02 3.2196625199e-03 1.4925971638e-04 -8.8379360326e-05 1.2895929638e-03 -3.2502014522e-05
101                -2.1144044529e-02 4.5443046256e-03 1.4303005062e-04 -2.1060206788e-02 3.2543925644e-03 1.7405142591e-04 -8.3837741107e-05 1.2899120612e-03 -3.1021375286e-05
102                -2.1256916964e-02 4.5030787210e-03 1.1763678478e-04 -2.1168088771e-02 3.2136840604e-03 1.5039206532e-04 -8.8828193618e-05 1.2893946606e-03 -3.2755280542e-05
103                -2.1100183720e-02 4.5431463168e-03 1.4751846103e-04 -2.1017008523e-02 3.2526910845e-03 1.7836614360e-04 -8.3175196208e-05 1.2904552323e-03 -3.0847682566e-05
104                -2.1207727495e-02 4.5047929737e-03 1.2220185189e-04 -2.1119797221e-02 3.2155578091e-03 1.5467987853e-04 -8.7930274334e-05 1.2892351646e-03 -3.2478026647e-05
105                -2.1067167699e-02 4.5472686978e-03 1.4827535576e-04 -2.0983791563e-02 3.2573374976e-03 1.7925148333e-04 -8.3376135403e-05 1.2899312002e-03 -3.0976127570e-05
106                -2.1165821981e-02 4.5067235379e-03 1.2355573338e-04 -2.1077702254e-02 3.2169964172e-03 1.5619866427e-04 -8.8119727438e-05 1.2897271206e-03 -3.2642930882e-05
107                -2.1028028152e-02 4.5404102141e-03 1.5001153016e-04 -2.0944777565e-02 3.2510880096e-03 1.8090123244e-04 -8.3250586556e-05 1.2893222045e-03 -3.0889702287e-05
108                -2.1137272385e-02 4.5042299452e-03 1.2513508352e-04 -2.1048661014e-02 3.2159418762e-03 1.5774080216e-04 -8.8611371012e-05 1.2882880690e-03 -3.2605718637e-05
109                -2.0991542336e-02 4.5417762396e-03 1.5267211585e-04 -2.0908041019e-02 3.2518176659e-03 1.8367319839e-04 -8.3501317600e-05 1.2899585737e-03 -3.1001082549e-05
110                -2.1111459509e-02 4.5024103578e-03 1.2564627102e-04 -2.1023496752e-02 3.2132470109e-03 1.5823123332e-04 -8.7962756580e-05 1.2891633468e-03 -3.2584962300e-05
111                -2.0974027545e-02 4.5448301909e-03 1.5420150326e-04 -2.0891298628e-02 3.2554115833e-03 1.8492144509e-04 -8.2728917221e-05 1.2894186076e-03 -3.0719941826e-05
112                -2.1072205960e-02 4.5043992540e-03 1.3049770127e-04 -2.0984077513e-02 3.2157200954e-03 1.6296025237e-04 -8.8128447092e-05 1.2886791586e-03 -3.2462551099e-05
113                -2.0955872833e-02 4.5394359973e-03 1.5584234906e-04 -2.0872157801e-02 3.2503721363e-03 1.8681857175e-04 -8.3715032143e-05 1.2890638610e-03 -3.0976222693e-05
114                -2.1074312185e-02 4.5044048512e-03 1.3057477522e-04 -2.0985695656e-02 3.2158223357e-03 1.6322024771e-04 -8.8616528960e-05 1.2885825155e-03 -3.2645472485e-05
115                -2.0940617614e-02 4.5416290773e-03 1.5897075264e-04 -2.0857437236e-02 3.2524902650e-03 1.8976623763e-04 -8.3180377316e-05 1.2891388122e-03 -3.0795484994e-05
116                -2.1062452424e-02 4.5040620133e-03 1.3412003760e-04 -2.0974432796e-02 3.2161269562e-03 1.6654956707e-04 -8.8019627915e-05 1.2879350571e-03 -3.2429529467e-05
117                -2.0944932664e-02 4.5431781269e-03 1.6112905833e-04 -2.0861626524e-02 3.2542035623e-03 1.9199537168e-04 -8.3306139890e-05 1.2889745645e-03 -3.0866313348e-05
118                -2.1060040233e-02 4.5071510695e-03 1.3727256301e-04 -2.0972161689e-02 3.2184516654e-03 1.6975603845e-04 -8.7878543920e-05 1.2886994041e-03 -3.2483475436e-05
119                -2.0943340468e-02 4.5421161161e-03 1.6286152130e-04 -2.0859934525e-02 3.2538119663e-03 1.9369950167e-04 -8.3405942784e-05 1.2883041498e-03 -3.0837980371e-05
120                -2.1063908993e-02 4.5049168336e-03 1.3851869839e-04 -2.0975540457e-02 3.2170194126e-03 1.7103680813e-04 -8.8368536220e-05 1.2878974210e-03 -3.2518109748e-05
121                -2.0938765388e-02 4.5424400281e-03 1.6502608266e-04 -2.0855532967e-02 3.2534868281e-03 1.9589013817e-04 -8.3232420402e-05 1.2889532000e-03 -3.0864055505e-05
122                -2.1063507728e-02 4.5049301712e-03 1.3987689466e-04 -2.0975522051e-02 3.2167464872e-03 1.7243479975e-04 -8.7985676701e-05 1.2881836840e-03 -3.2557905097e-05
123                -2.0945207599e-02 4.5448370050e-03 1.6621277308e-04 -2.0862498497e-02 3.2563887876e-03 1.9689915797e-04 -8.2709101645e-05 1.2884482174e-03 -3.0686384887e-05
124                -2.1054907494e-02 4.5074563008e-03 1.4236606054e-04 -2.0967177620e-02 3.2194991501e-03 1.7474604820e-04 -8.7729874824e-05 1.2879571508e-03 -3.2379987663e-05
125                -2.0944980185e-02 4.5440765276e-03 1.6632599115e-04 -2.0861457206e-02 3.2559284317e-03 1.9725047638e-04 -8.3522979377e-05 1.2881480958e-03 -3.0924485227e-05
126                -2.1070702550e-02 4.5077082929e-03 1.4211709671e-04 -2.0982318399e-02 3.2197455214e-03 1.7473548276e-04 -8.8384151251e-05 1.2879627714e-03 -3.2618386048e-05
127                -2.0943160732e-02 4.5445779273e-03 1.6904408310e-04 -2.0860403373e-02 3.2560599286e-03 1.9979447531e-04 -8.2757359521e-05 1.2885179987e-03 -3.0750392217e-05
128                -2.1068445168e-02 4.5033356950e-03 1.4161607228e-04 -2.0980623746e-02 3.2159528099e-03 1.7408335249e-04 -8.7821421789e-05 1.2873828852e-03 -3.2467280214e-05
129                -2.0936144605e-02 4.5472911928e-03 1.6696557401e-04 -2.0853365009e-02 3.2584540489e-03 1.9776487086e-04 -8.2779596210e-05 1.2888371439e-03 -3.0799296846e-05
130                -2.1044433828e-02 4.5045147823e-03 1.4046476614e-04 -2.0956605294e-02 3.2160457548e-03 1.7299974539e-04 -8.7828534074e-05 1.2884690275e-03 -3.2534979246e-05
131                -2.0913697727e-02 4.5417080678e-03 1.6663890175e-04 -2.0830568175e-02 3.2536013356e-03 1.9750063617e-04 -8.3129551555e-05 1.2881067322e-03 -3.0861734423e-05
132                -2.1034598318e-02 4.5055583119e-03 1.3990810105e-04 -2.0946345306e-02 3.2181173798e-03 1.7242710235e-04 -8.8253012436e-05 1.2874409321e-03 -3.2519001298e-05
133                -2.0898867435e-02 4.5395827345e-03 1.6483929182e-04 -2.0815600994e-02 3.2513407308e-03 1.9576015734e-04 -8.3266441196e-05 1.2882420037e-03 -3.0920865520e-05
134                -2.1019265789e-02 4.5021064843e-03 1.3729299419e-04 -2.0931490211e-02 3.2141253240e-03 1.6978325211e-04 -8.7775578245e-05 1.2879811604e-03 -3.2490257914e-05
135                -2.0877362360e-02 4.5444357507e-03 1.6554152949e-04 -2.0794689290e-02 3.2564293528e-03 1.9622364974e-04 -8.2673070609e-05 1.2880063979e-03 -3.0682120246e-05
136                -2.0992443715e-02 4.5022557408e-03 1.3848977863e-04 -2.0904253241e-02 3.2148056001e-03 1.7093744175e-04 -8.8190474032e-05 1.2874501406e-03 -3.2447663123e-05
137                -2.0872968633e-02 4.5391301075e-03 1.6392716914e-04 -2.0789314719e-02 3.2519767759e-03 1.9486265612e-04 -8.3653914178e-05 1.2871533316e-03 -3.0935486986e-05
138                -2.1001774919e-02 4.5001365813e-03 1.3862270811e-04 -2.0913061557e-02 3.2130252728e-03 1.7127318188e-04 -8.8713361775e-05 1.2871113085e-03 -3.2650473766e-05
139                -2.0874166151e-02 4.5387042267e-03 1.6629994759e-04 -2.0791278291e-02 3.2508192935e-03 1.9702691835e-04 -8.2887860276e-05 1.2878849332e-03 -3.0726970766e-05
140                -2.1004283195e-02 4.5034064142e-03 1.3957808855e-04 -2.0916463412e-02 3.2161949755e-03 1.7197881016e-04 -8.7819783063e-05 1.2872114387e-03 -3.2400721616e-05
141                -2.0878167464e-02 4.5446939118e-03 1.6640735405e-04 -2.0795356941e-02 3.2568899743e-03 1.9716833822e-04 -8.2810522654e-05 1.2878039375e-03 -3.0760984167e-05
142                -2.0998831039e-02 4.5020889583e-03 1.4009577060e-04 -2.0910763659e-02 3.2145242592e-03 1.7264194763e-04 -8.8067380756e-05 1.2875646991e-03 -3.2546177033e-05
143                -2.0875818841e-02 4.5383661578e-03 1.6610212942e-04 -2.0792457806e-02 3.2512324429e-03 1.9694880045e-04 -8.3361035054e-05 1.2871337149e-03 -3.0846671034e-05
144                -2.0998719043e-02 4.5046259292e-03 1.3992234325e-04 -2.0910394238e-02 3.2179129384e-03 1.7243972041e-04 -8.8324804588e-05 1.2867129908e-03 -3.2517377158e-05
145                -2.0868414133e-02 4.5385994287e-03 1.6503509072e-04 -2.0785303247e-02 3.2510598695e-03 1.9590082487e-04 -8.3110885277e-05 1.2875395592e-03 -3.0865734154e-05
146                -2.0993217240e-02 4.4995606591e-03 1.3767110062e-04 -2.0905276614e-02 3.2124512551e-03 1.7021461511e-04 -8.7940626694e-05 1.2871094040e-03 -3.2543514487e-05
147                -2.0858501955e-02 4.5438469687e-03 1.6613146761e-04 -2.0775948290e-02 3.2561907608e-03 1.9679627380e-04 -8.2553664676e-05 1.2876562079e-03 -3.0664806190e-05
148                -2.0976758943e-02 4.5013853058e-03 1.3895524499e-04 -2.0888805058e-02 3.2143472285e-03 1.7138687928e-04 -8.7953884868e-05 1.2870380773e-03 -3.2431634291e-05
149                -2.0855833935e-02 4.5383768129e-03 1.6406453700e-04 -2.0772317241e-02 3.2513131748e-03 1.9498942482e-04 -8.3516693410e-05 1.2870636381e-03 -3.0924887816e-05
150                -2.0981800674e-02 4.5027040232e-03 1.3883574233e-04 -2.0893354057e-02 3.2155070645e-03 1.7142470217e-04 -8.8446617357e-05 1.2871969587e-03 -3.2588959839e-05
151                -2.0854832498e-02 4.5403598321e-03 1.6666678364e-04 -2.0772169601e-02 3.2528365432e-03 1.9734033911e-04 -8.2662897084e-05 1.2875232889e-03 -3.0673555475e-05
152                -2.0991333121e-02 4.5020031862e-03 1.3917368825e-04 -2.0903568867e-02 3.2153922752e-03 1.7154755625e-04 -8.7764254134e-05 1.2866109110e-03 -3.2373867996e-05
153                -2.0869800037e-02 4.5465584622e-03 1.6686191754e-04 -2.0786890393e-02 3.2593535627e-03 1.9761853187e-04 -8.2909644248e-05 1.2872048995e-03 -3.0756614326e-05
154                -2.0999604078e-02 4.5023165887e-03 1.4134903384e-04 -2.0911288869e-02 3.2152707381e-03 1.7389657484e-04 -8.8315209402e-05 1.2870458506e-03 -3.2547540993e-05
155                -2.0886899392e-02 4.5422358853e-03 1.6910717713e-04 -2.0803689649e-02 3.2556460915e-03 1.9989523460e-04 -8.3209743000e-05 1.2865897938e-03 -3.0788057463e-05
156                -2.1026697451e-02 4.5056333687e-03 1.4293873016e-04 -2.0938170910e-02 3.2192905800e-03 1.7545064116e-04 -8.8526541084e-05 1.2863427888e-03 -3.2511911000e-05
157                -2.0906409563e-02 4.5453419776e-03 1.6958316640e-04 -2.0823392947e-02 3.2580358987e-03 2.0038260468e-04 -8.3016615508e-05 1.2873060789e-03 -3.0799438282e-05
158                -2.1038245218e-02 4.5039277292e-03 1.4398208135e-04 -2.0950215840e-02 3.2171476041e-03 1.7649445106e-04 -8.8029377902e-05 1.2867801251e-03 -3.2512369708e-05
159                -2.0919375684e-02 4.5447518276e-03 1.7158506600e-04 -2.0836742427e-02 3.2575126582e-03 2.0222131675e-04 -8.2633257108e-05 1.2872391694e-03 -3.0636250749e-05
160                -2.1040143450e-02 4.5074935299e-03 1.4519421313e-04 -2.0952322776e-02 3.2205513722e-03 1.7756082916e-04 -8.7820674320e-05 1.2869421577e-03 -3.2366616030e-05
161                -2.0918484889e-02 4.5448545316e-03 1.6996891884e-04 -2.0835053042e-02 3.2576902737e-03 2.0084413061e-04 -8.3431847186e-05 1.2871642580e-03 -3.0875211766e-05
162                -2.1043633248e-02 4.5056347590e-03 1.4475350861e-04 -2.0955273466e-02 3.2190154997e-03 1.7728604336e-04 -8.8359781877e-05 1.2866192594e-03 -3.2532534744e-05
163                -2.0914417117e-02 4.5431352561e-03 1.7167011833e-04 -2.0831303193e-02 3.2556991036e-03 2.0240958610e-04 -8.3113923350e-05 1.2874361526e-03 -3.0739467771e-05
164                -2.1043441981e-02 4.5053884091e-03 1.4387131510e-04 -2.0955536406e-02 3.2189874557e-03 1.7625300372e-04 -8.7905575192e-05 1.2864009533e-03 -3.2381688626e-05
165                -2.0911860462e-02 4.5467168844e-03 1.6989393964e-04 -2.0828666410e-02 3.2593878705e-03 2.0068932594e-04 -8.3194051962e-05 1.2873290139e-03 -3.0795386294e-05
166                -2.1028572745e-02 4.5055825011e-03 1.4436159242e-04 -2.0940565669e-02 3.2186348622e-03 1.7682760394e-04 -8.8007076212e-05 1.2869476389e-03 -3.2466011512e-05
167                -2.0910848853e-02 4.5419087177e-03 1.7080626509e-04 -2.0827596660e-02 3.2552380576e-03 2.0159021918e-04 -8.3252193002e-05 1.2866706602e-03 -3.0783954087e-05
168                -2.1037817898e-02 4.5064210442e-03 1.4513341994e-04 -2.0949557909e-02 3.2203339718e-03 1.7757881563e-04 -8.8259988889e-05 1.2860870724e-03 -3.2445395697e-05
169                -2.0908679751e-02 4.5443841690e-03 1.7164409983e-04 -2.0825271704e-02 3.2570134120e-03 2.0251073455e-04 -8.3408046865e-05 1.2873707571e-03 -3.0866634718e-05