    1C
    1UUSER                                                              
    1UDATE              02.september.2024                               
    1UTIME              14:28:05                                        
    1UHOST                                                              
    1UPGM               CalculiX                                        
    1UVERSION           Version 2.20                             
    1UCOMPILETIME       Sun Jul 31 18:08:37 CEST 2022                    
    1UDIR                                                               
    1UDBN                                                               
    1UMAT    1EL                                                        
    2C                          2353                                     1
 -1         1-5.00000E+01 0.00000E+00 0.00000E+00
 -1         2-5.00000E+01 0.00000E+00 3.00000E+02
 -1         3 5.00072E+01 1.25795E-01 3.00000E+02
 -1         4 5.00072E+01 1.25795E-01 0.00000E+00
 -1         5 4.99928E+01-1.25795E-01 3.00000E+02
 -1         6 4.99928E+01-1.25795E-01 0.00000E+00
 -1         7-5.00000E+01 0.00000E+00 1.00000E+01
 -1         8-5.00000E+01 0.00000E+00 2.00000E+01
 -1         9-5.00000E+01 0.00000E+00 3.00000E+01
 -1        10-5.00000E+01 0.00000E+00 4.00000E+01
 -1        11-5.00000E+01 0.00000E+00 5.00000E+01
 -1        12-5.00000E+01 0.00000E+00 6.00000E+01
 -1        13-5.00000E+01 0.00000E+00 7.00000E+01
 -1        14-5.00000E+01 0.00000E+00 8.00000E+01
 -1        15-5.00000E+01 0.00000E+00 9.00000E+01
 -1        16-5.00000E+01 0.00000E+00 1.00000E+02
 -1        17-5.00000E+01 0.00000E+00 1.10000E+02
 -1        18-5.00000E+01 0.00000E+00 1.20000E+02
 -1        19-5.00000E+01 0.00000E+00 1.30000E+02
 -1        20-5.00000E+01 0.00000E+00 1.40000E+02
 -1        21-5.00000E+01 0.00000E+00 1.50000E+02
 -1        22-5.00000E+01 0.00000E+00 1.60000E+02
 -1        23-5.00000E+01 0.00000E+00 1.70000E+02
 -1        24-5.00000E+01 0.00000E+00 1.80000E+02
 -1        25-5.00000E+01 0.00000E+00 1.90000E+02
 -1        26-5.00000E+01 0.00000E+00 2.00000E+02
 -1        27-5.00000E+01 0.00000E+00 2.10000E+02
 -1        28-5.00000E+01 0.00000E+00 2.20000E+02
 -1        29-5.00000E+01 0.00000E+00 2.30000E+02
 -1        30-5.00000E+01 0.00000E+00 2.40000E+02
 -1        31-5.00000E+01 0.00000E+00 2.50000E+02
 -1        32-5.00000E+01 0.00000E+00 2.60000E+02
 -1        33-5.00000E+01 0.00000E+00 2.70000E+02
 -1        34-5.00000E+01 0.00000E+00 2.80000E+02
 -1        35-5.00000E+01 0.00000E+00 2.90000E+02
 -1        36-5.00000E+01 0.00000E+00 5.00000E+00
 -1        37-5.00000E+01 0.00000E+00 1.50000E+01
 -1        38-5.00000E+01 0.00000E+00 2.50000E+01
 -1        39-5.00000E+01 0.00000E+00 3.50000E+01
 -1        40-5.00000E+01 0.00000E+00 4.50000E+01
 -1        41-5.00000E+01 0.00000E+00 5.50000E+01
 -1        42-5.00000E+01 0.00000E+00 6.50000E+01
 -1        43-5.00000E+01 0.00000E+00 7.50000E+01
 -1        44-5.00000E+01 0.00000E+00 8.50000E+01
 -1        45-5.00000E+01 0.00000E+00 9.50000E+01
 -1        46-5.00000E+01 0.00000E+00 1.05000E+02
 -1        47-5.00000E+01 0.00000E+00 1.15000E+02
 -1        48-5.00000E+01 0.00000E+00 1.25000E+02
 -1        49-5.00000E+01 0.00000E+00 1.35000E+02
 -1        50-5.00000E+01 0.00000E+00 1.45000E+02
 -1        51-5.00000E+01 0.00000E+00 1.55000E+02
 -1        52-5.00000E+01 0.00000E+00 1.65000E+02
 -1        53-5.00000E+01 0.00000E+00 1.75000E+02
 -1        54-5.00000E+01 0.00000E+00 1.85000E+02
 -1        55-5.00000E+01 0.00000E+00 1.95000E+02
 -1        56-5.00000E+01 0.00000E+00 2.05000E+02
 -1        57-5.00000E+01 0.00000E+00 2.15000E+02
 -1        58-5.00000E+01 0.00000E+00 2.25000E+02
 -1        59-5.00000E+01 0.00000E+00 2.35000E+02
 -1        60-5.00000E+01 0.00000E+00 2.45000E+02
 -1        61-5.00000E+01 0.00000E+00 2.55000E+02
 -1        62-5.00000E+01 0.00000E+00 2.65000E+02
 -1        63-5.00000E+01 0.00000E+00 2.75000E+02
 -1        64-5.00000E+01 0.00000E+00 2.85000E+02
 -1        65-5.00000E+01 0.00000E+00 2.95000E+02
 -1        66-4.18217E+01 5.39014E+00 3.00000E+02
 -1        67-2.81824E+01 7.69467E+00 3.00000E+02
 -1        68-9.32653E+00 7.73292E+00 3.00000E+02
 -1        69 1.05638E+01 6.14624E+00 3.00000E+02
 -1        70 3.03508E+01 3.56342E+00 3.00000E+02
 -1        71-4.66515E+01 3.56599E+00 3.00000E+02
 -1        72-3.50606E+01 6.88194E+00 3.00000E+02
 -1        73-1.87562E+01 7.99758E+00 3.00000E+02
 -1        74 6.30272E-01 7.08652E+00 3.00000E+02
 -1        75 2.04714E+01 4.96302E+00 3.00000E+02
 -1        76 4.01982E+01 1.95438E+00 3.00000E+02
 -1        77 5.00072E+01 1.25795E-01 2.00000E+01
 -1        78 5.00072E+01 1.25795E-01 4.00000E+01
 -1        79 5.00072E+01 1.25795E-01 6.00000E+01
 -1        80 5.00072E+01 1.25795E-01 8.00000E+01
 -1        81 5.00072E+01 1.25795E-01 1.00000E+02
 -1        82 5.00072E+01 1.25795E-01 1.20000E+02
 -1        83 5.00072E+01 1.25795E-01 1.40000E+02
 -1        84 5.00072E+01 1.25795E-01 1.60000E+02
 -1        85 5.00072E+01 1.25795E-01 1.80000E+02
 -1        86 5.00072E+01 1.25795E-01 2.00000E+02
 -1        87 5.00072E+01 1.25795E-01 2.20000E+02
 -1        88 5.00072E+01 1.25795E-01 2.40000E+02
 -1        89 5.00072E+01 1.25795E-01 2.60000E+02
 -1        90 5.00072E+01 1.25795E-01 2.80000E+02
 -1        91 5.00072E+01 1.25795E-01 1.00000E+01
 -1        92 5.00072E+01 1.25795E-01 3.00000E+01
 -1        93 5.00072E+01 1.25795E-01 5.00000E+01
 -1        94 5.00072E+01 1.25795E-01 7.00000E+01
 -1        95 5.00072E+01 1.25795E-01 9.00000E+01
 -1        96 5.00072E+01 1.25795E-01 1.10000E+02
 -1        97 5.00072E+01 1.25795E-01 1.30000E+02
 -1        98 5.00072E+01 1.25795E-01 1.50000E+02
 -1        99 5.00072E+01 1.25795E-01 1.70000E+02
 -1       100 5.00072E+01 1.25795E-01 1.90000E+02
 -1       101 5.00072E+01 1.25795E-01 2.10000E+02
 -1       102 5.00072E+01 1.25795E-01 2.30000E+02
 -1       103 5.00072E+01 1.25795E-01 2.50000E+02
 -1       104 5.00072E+01 1.25795E-01 2.70000E+02
 -1       105 5.00072E+01 1.25795E-01 2.90000E+02
 -1       106-4.18217E+01 5.39014E+00 0.00000E+00
 -1       107-2.81824E+01 7.69467E+00 0.00000E+00
 -1       108-9.32653E+00 7.73292E+00 0.00000E+00
 -1       109 1.05638E+01 6.14624E+00 0.00000E+00
 -1       110 3.03508E+01 3.56342E+00 0.00000E+00
 -1       111-4.66515E+01 3.56599E+00 0.00000E+00
 -1       112-3.50606E+01 6.88194E+00 0.00000E+00
 -1       113-1.87562E+01 7.99758E+00 0.00000E+00
 -1       114 6.30272E-01 7.08652E+00 0.00000E+00
 -1       115 2.04714E+01 4.96302E+00 0.00000E+00
 -1       116 4.01982E+01 1.95438E+00 0.00000E+00
 -1       117 5.00000E+01-1.22152E-13 3.00000E+02
 -1       118 4.99928E+01-1.25795E-01 2.00000E+01
 -1       119 4.99928E+01-1.25795E-01 4.00000E+01
 -1       120 4.99928E+01-1.25795E-01 6.00000E+01
 -1       121 4.99928E+01-1.25795E-01 8.00000E+01
 -1       122 4.99928E+01-1.25795E-01 1.00000E+02
 -1       123 4.99928E+01-1.25795E-01 1.20000E+02
 -1       124 4.99928E+01-1.25795E-01 1.40000E+02
 -1       125 4.99928E+01-1.25795E-01 1.60000E+02
 -1       126 4.99928E+01-1.25795E-01 1.80000E+02
 -1       127 4.99928E+01-1.25795E-01 2.00000E+02
 -1       128 4.99928E+01-1.25795E-01 2.20000E+02
 -1       129 4.99928E+01-1.25795E-01 2.40000E+02
 -1       130 4.99928E+01-1.25795E-01 2.60000E+02
 -1       131 4.99928E+01-1.25795E-01 2.80000E+02
 -1       132 4.99928E+01-1.25795E-01 1.00000E+01
 -1       133 4.99928E+01-1.25795E-01 3.00000E+01
 -1       134 4.99928E+01-1.25795E-01 5.00000E+01
 -1       135 4.99928E+01-1.25795E-01 7.00000E+01
 -1       136 4.99928E+01-1.25795E-01 9.00000E+01
 -1       137 4.99928E+01-1.25795E-01 1.10000E+02
 -1       138 4.99928E+01-1.25795E-01 1.30000E+02
 -1       139 4.99928E+01-1.25795E-01 1.50000E+02
 -1       140 4.99928E+01-1.25795E-01 1.70000E+02
 -1       141 4.99928E+01-1.25795E-01 1.90000E+02
 -1       142 4.99928E+01-1.25795E-01 2.10000E+02
 -1       143 4.99928E+01-1.25795E-01 2.30000E+02
 -1       144 4.99928E+01-1.25795E-01 2.50000E+02
 -1       145 4.99928E+01-1.25795E-01 2.70000E+02
 -1       146 4.99928E+01-1.25795E-01 2.90000E+02
 -1       147 5.00000E+01-1.22152E-13 0.00000E+00
 -1       148-4.08907E+01-3.43528E+00 0.00000E+00
 -1       149-2.71930E+01-3.98227E+00 0.00000E+00
 -1       150-8.64285E+00-3.80037E+00 0.00000E+00
 -1       151 1.09196E+01-2.86927E+00 0.00000E+00
 -1       152 3.04635E+01-1.60146E+00 0.00000E+00
 -1       153-4.59301E+01-2.63676E+00 0.00000E+00
 -1       154-3.40482E+01-3.85436E+00 0.00000E+00
 -1       155-1.79168E+01-3.99374E+00 0.00000E+00
 -1       156 1.14132E+00-3.39786E+00 0.00000E+00
 -1       157 2.06933E+01-2.26227E+00 0.00000E+00
 -1       158 4.02304E+01-8.92733E-01 0.00000E+00
 -1       159-4.08907E+01-3.43528E+00 3.00000E+02
 -1       160-2.71930E+01-3.98227E+00 3.00000E+02
 -1       161-8.64285E+00-3.80037E+00 3.00000E+02
 -1       162 1.09196E+01-2.86927E+00 3.00000E+02
 -1       163 3.04635E+01-1.60146E+00 3.00000E+02
 -1       164-4.59301E+01-2.63676E+00 3.00000E+02
 -1       165-3.40482E+01-3.85436E+00 3.00000E+02
 -1       166-1.79168E+01-3.99374E+00 3.00000E+02
 -1       167 1.14132E+00-3.39786E+00 3.00000E+02
 -1       168 2.06933E+01-2.26227E+00 3.00000E+02
 -1       169 4.02304E+01-8.92733E-01 3.00000E+02
 -1       170-3.95490E+01 5.99019E+00 2.21089E+02
 -1       171-4.32695E+01 4.93866E+00 2.29624E+02
 -1       172-2.10991E+01 7.99660E+00 4.51240E+01
 -1       173-9.56601E+00 7.74422E+00 4.44661E+01
 -1       174-1.80383E+01 7.99163E+00 5.34905E+01
 -1       175-3.35439E+00 7.38450E+00 5.64280E+01
 -1       176-3.04926E+01 7.48533E+00 2.54235E+02
 -1       177-2.35145E+01 7.94740E+00 2.63286E+02
 -1       178-3.51006E+01 6.87542E+00 2.63025E+02
 -1       179-2.75358E+01 7.74284E+00 2.43261E+02
 -1       180-1.44169E+01 7.92401E+00 2.52145E+02
 -1       181-6.81076E+00 7.60140E+00 2.19772E+02
 -1       182 1.08839E+01 6.11166E+00 2.18963E+02
 -1       183 6.71694E+00 6.54167E+00 2.33398E+02
 -1       184 5.26454E+00 6.68097E+00 4.47433E+01
 -1       185-3.72996E-01 7.16614E+00 2.80948E+01
 -1       186-6.92614E+00 7.60793E+00 1.95089E+02
 -1       187 1.23336E+01 5.95187E+00 1.95373E+02
 -1       188 4.37039E-01 7.10209E+00 2.07919E+02
 -1       189-1.77887E+01 7.98897E+00 3.20863E+01
 -1       190 4.24919E+00 6.77497E+00 1.43833E+02
 -1       191 4.37293E-01 7.10207E+00 1.27920E+02
 -1       192 1.44451E+01 5.71008E+00 1.35943E+02
 -1       193-8.31255E+00 7.68270E+00 1.38671E+02
 -1       194-6.92614E+00 7.60793E+00 1.55089E+02
 -1       195 1.23337E+01 5.95187E+00 1.55373E+02
 -1       196 4.37293E-01 7.10207E+00 1.67920E+02
 -1       197 4.24919E+00 6.77497E+00 1.83833E+02
 -1       198 1.44451E+01 5.71008E+00 1.75943E+02
 -1       199-8.31255E+00 7.68270E+00 1.78671E+02
 -1       200 2.04506E+01 4.96574E+00 4.42717E+01
 -1       201 2.81735E+01 3.89021E+00 5.89590E+01
 -1       202 1.28550E+01 5.89316E+00 5.55032E+01
 -1       203-6.92614E+00 7.60793E+00 1.15089E+02
 -1       204 1.16464E+01 6.02825E+00 1.17216E+02
 -1       205 3.65191E+01 2.58101E+00 4.58473E+01
 -1       206-5.10037E+00 7.49911E+00 9.93232E+01
 -1       207 1.16464E+01 6.02825E+00 9.72164E+01
 -1       208 3.79991E+00 6.81566E+00 1.06649E+02
 -1       209-4.69854E+00 7.47363E+00 7.72228E+01
 -1       210 1.16464E+01 6.02825E+00 7.72164E+01
 -1       211 3.44180E+00 6.84770E+00 8.67342E+01
 -1       212 1.88878E+01 5.16734E+00 2.42533E+02
 -1       213 1.98853E+01 5.03928E+00 2.29593E+02
 -1       214 3.79991E+00 6.81566E+00 6.66493E+01
 -1       215-4.06224E+01 5.72154E+00 2.56233E+02
 -1       216-3.89350E+01 6.13316E+00 2.46717E+02
 -1       217 3.04238E+01 3.55227E+00 3.14146E+01
 -1       218 1.58930E+01 5.53821E+00 3.41228E+01
 -1       219 1.92235E+01 5.12449E+00 2.06769E+02
 -1       220 3.20005E+01 3.30891E+00 1.94925E+02
 -1       221 3.47336E+01 2.87407E+00 2.08779E+02
 -1       222 2.00260E+01 5.02105E+00 1.84502E+02
 -1       223 3.20005E+01 3.30891E+00 1.74925E+02
 -1       224 1.92235E+01 5.12449E+00 1.66769E+02
 -1       225 2.80880E+01 3.90284E+00 2.19433E+02
 -1       226 3.20005E+01 3.30891E+00 1.54925E+02
 -1       227 2.00260E+01 5.02105E+00 1.44502E+02
 -1       228-4.33781E-01 7.17087E+00 2.61765E+02
 -1       229-1.17301E+01 7.83625E+00 2.66426E+02
 -1       230-4.40250E+01 4.67655E+00 6.37905E+01
 -1       231-4.11344E+01 5.58434E+00 7.11572E+01
 -1       232-8.43222E+00 7.68882E+00 2.36314E+02
 -1       233 3.68978E+00 6.82555E+00 2.48089E+02
 -1       234-3.02463E+01 7.51052E+00 2.31022E+02
 -1       235-3.84203E+01 6.24740E+00 2.37371E+02
 -1       236 3.20005E+01 3.30891E+00 1.34925E+02
 -1       237 1.92235E+01 5.12449E+00 1.26769E+02
 -1       238 1.14566E+01 6.04915E+00 2.70742E+02
 -1       239 2.93714E+01 3.71169E+00 2.64634E+02
 -1       240 2.41601E+01 4.46547E+00 2.75179E+02
 -1       241 4.03507E+01 1.92774E+00 2.71672E+02
 -1       242 3.20001E+01 3.30897E+00 1.14925E+02
 -1       243 1.92235E+01 5.12449E+00 1.06769E+02
 -1       244 3.19881E+01 3.31084E+00 9.49139E+01
 -1       245 1.92235E+01 5.12449E+00 8.67695E+01
 -1       246 3.15835E+01 3.37380E+00 7.46625E+01
 -1       247 1.92235E+01 5.12449E+00 6.67695E+01
 -1       248 3.33872E+01 3.09035E+00 2.32410E+02
 -1       249 3.39978E+01 2.99276E+00 2.48197E+02
 -1       250 6.72451E+00 6.54093E+00 2.84873E+02
 -1       251-1.37518E+01 7.90513E+00 2.87289E+02
 -1       252-3.61999E+00 7.40258E+00 2.75838E+02
 -1       253-2.76909E+01 7.73169E+00 1.35069E+01
 -1       254-3.66206E+01 6.60997E+00 9.30962E+00
 -1       255-3.81201E+01 6.31180E+00 2.91889E+02
 -1       256-2.75921E+01 7.73882E+00 2.84707E+02
 -1       257 1.65577E+01 5.45767E+00 2.55947E+02
 -1       258-1.86107E+01 7.99658E+00 2.75596E+02
 -1       259-2.84441E+01 7.67392E+00 2.73612E+02
 -1       260-3.76013E+01 6.41927E+00 2.78406E+02
 -1       261-4.07630E+01 5.68446E+00 2.84490E+02
 -1       262-4.31059E+01 4.99285E+00 9.28799E+01
 -1       263-3.80472E+01 6.32719E+00 8.26369E+01
 -1       264-3.40177E+01 7.04387E+00 9.23562E+01
 -1       265-2.64736E+01 7.81252E+00 8.38319E+01
 -1       266-4.29589E+01 5.04080E+00 2.12687E+02
 -1       267-3.92037E+01 6.07151E+00 2.03295E+02
 -1       268-3.40177E+01 7.04387E+00 2.12356E+02
 -1       269-2.68444E+01 7.78951E+00 2.03228E+02
 -1       270-4.31059E+01 4.99285E+00 1.72880E+02
 -1       271-3.92094E+01 6.07017E+00 1.63303E+02
 -1       272-3.40177E+01 7.04387E+00 1.72356E+02
 -1       273-2.68443E+01 7.78952E+00 1.63228E+02
 -1       274-4.31059E+01 4.99285E+00 1.32880E+02
 -1       275-3.92094E+01 6.07017E+00 1.23303E+02
 -1       276-3.40177E+01 7.04387E+00 1.32356E+02
 -1       277-2.68443E+01 7.78952E+00 1.23228E+02
 -1       278-3.10254E+01 7.42843E+00 2.96640E+01
 -1       279-4.10037E+01 5.61995E+00 2.60048E+01
 -1       280-3.40560E+01 7.03819E+00 2.01083E+01
 -1       281-4.37301E+01 4.78128E+00 1.67916E+01
 -1       282-2.33325E+01 7.95296E+00 2.27605E+01
 -1       283-4.48736E+01 4.35601E+00 8.63185E+01
 -1       284-4.13624E+01 5.52123E+00 2.70980E+02
 -1       285-4.02625E+01 5.81438E+00 3.54637E+01
 -1       286-4.10398E+01 5.61016E+00 1.83019E+02
 -1       287-4.28025E+01 5.09109E+00 1.93235E+02
 -1       288-4.10398E+01 5.61016E+00 1.43019E+02
 -1       289-4.28025E+01 5.09109E+00 1.53235E+02
 -1       290-4.10398E+01 5.61016E+00 1.03019E+02
 -1       291-4.28025E+01 5.09109E+00 1.13235E+02
 -1       292-3.20700E+01 7.30703E+00 5.14604E+01
 -1       293-3.62846E+01 6.67169E+00 6.12938E+01
 -1       294-4.27639E+01 5.10338E+00 5.40975E+01
 -1       295-2.67086E+01 7.79810E+00 6.08416E+01
 -1       296-2.91609E+01 7.61325E+00 2.21199E+02
 -1       297-3.25341E+01 7.24876E+00 1.91716E+02
 -1       298 2.93426E+01 3.71602E+00 9.32108E+00
 -1       299-2.91609E+01 7.61325E+00 1.81199E+02
 -1       300 3.07784E+01 3.49802E+00 2.86617E+02
 -1       301-3.25341E+01 7.24876E+00 1.51716E+02
 -1       302-2.91609E+01 7.61325E+00 1.41199E+02
 -1       303-3.25341E+01 7.24876E+00 1.11716E+02
 -1       304-1.95546E+01 8.00119E+00 2.36872E+02
 -1       305-2.91609E+01 7.61325E+00 1.01199E+02
 -1       306-3.01815E+01 7.51703E+00 4.01233E+01
 -1       307-2.04490E+01 8.00083E+00 2.13795E+02
 -1       308-1.86562E+01 7.99690E+00 2.25161E+02
 -1       309 1.80588E+01 5.27205E+00 2.20099E+01
 -1       310 7.14841E+00 6.49922E+00 1.13035E+01
 -1       311-2.86141E+01 7.66003E+00 7.23720E+01
 -1       312-1.72050E+01 7.98154E+00 1.29318E+01
 -1       313-1.92978E+01 8.00038E+00 1.95577E+02
 -1       314-1.37751E+01 7.90582E+00 2.04941E+02
 -1       315-2.29882E+01 7.96264E+00 1.74155E+02
 -1       316-1.92155E+01 8.00005E+00 1.85686E+02
 -1       317-1.92978E+01 8.00038E+00 1.55577E+02
 -1       318-1.37750E+01 7.90582E+00 1.64941E+02
 -1       319-5.83656E+00 7.54438E+00 1.51064E+01
 -1       320-2.29882E+01 7.96264E+00 1.34155E+02
 -1       321-1.92155E+01 8.00005E+00 1.45686E+02
 -1       322-1.92978E+01 8.00038E+00 1.15577E+02
 -1       323-1.37750E+01 7.90582E+00 1.24941E+02
 -1       324-4.31556E+01 4.97649E+00 2.64229E+02
 -1       325-2.16698E+01 7.98973E+00 9.48370E+01
 -1       326-1.92155E+01 8.00005E+00 1.05686E+02
 -1       327-4.10203E+01 5.61544E+00 4.47495E+01
 -1       328-1.74760E+01 7.98519E+00 7.62100E+01
 -1       329-1.19714E+01 7.84536E+00 8.54580E+01
 -1       330-1.35733E+01 7.89974E+00 6.70670E+01
 -1       331-1.18730E+01 7.84167E+00 2.24936E+01
 -1       332-4.63929E+01 3.69336E+00 5.00000E+00
 -1       333-4.63929E+01 3.69336E+00 2.95000E+02
 -1       334 3.05646E+01 3.53077E+00 2.93308E+02
 -1       335 4.04112E+01 1.91714E+00 2.93308E+02
 -1       336 4.04112E+01 1.91714E+00 2.83308E+02
 -1       337 3.96959E+01 2.04177E+00 1.46605E+01
 -1       338 3.96959E+01 2.04177E+00 4.66054E+00
 -1       339 2.98467E+01 3.64000E+00 4.66054E+00
 -1       340-4.73264E+01 3.20670E+00 1.33958E+01
 -1       341-4.73264E+01 3.20670E+00 1.83958E+01
 -1       342-4.38202E+01 4.74960E+00 9.65481E+00
 -1       343-3.92360E+01 6.06399E+00 4.65481E+00
 -1       344-4.02088E+01 5.82800E+00 1.30506E+01
 -1       345-4.59905E+01 3.88211E+00 2.30024E+01
 -1       346-4.59905E+01 3.88211E+00 2.80024E+01
 -1       347-4.23743E+01 5.22500E+00 2.13982E+01
 -1       348-4.56250E+01 4.04467E+00 3.27318E+01
 -1       349-4.56250E+01 4.04467E+00 3.77318E+01
 -1       350-4.06335E+01 5.71863E+00 3.07342E+01
 -1       351-4.59987E+01 3.87837E+00 4.23748E+01
 -1       352-4.59987E+01 3.87837E+00 4.73748E+01
 -1       353-4.06418E+01 5.71644E+00 4.01066E+01
 -1       354-4.68549E+01 3.46206E+00 5.70488E+01
 -1       355-4.68549E+01 3.46206E+00 5.20488E+01
 -1       356-4.18949E+01 5.36875E+00 4.94235E+01
 -1       357-4.74697E+01 3.12452E+00 6.68952E+01
 -1       358-4.74697E+01 3.12452E+00 6.18953E+01
 -1       359-4.33965E+01 4.89598E+00 5.89440E+01
 -1       360-4.60549E+01 3.85263E+00 7.55786E+01
 -1       361-4.60549E+01 3.85263E+00 7.05786E+01
 -1       362-4.25885E+01 5.15869E+00 6.74738E+01
 -1       363-4.78802E+01 2.87511E+00 8.81592E+01
 -1       364-4.78802E+01 2.87511E+00 8.31592E+01
 -1       365-4.45286E+01 4.48994E+00 8.13185E+01
 -1       366-3.95963E+01 5.97885E+00 7.68970E+01
 -1       367-4.15002E+01 5.48245E+00 8.44777E+01
 -1       368-4.70221E+01 3.37395E+00 9.64399E+01
 -1       369-4.70221E+01 3.37395E+00 9.14399E+01
 -1       370-4.39945E+01 4.68754E+00 8.95992E+01
 -1       371-4.60083E+01 3.87400E+00 1.06509E+02
 -1       372-4.60083E+01 3.87400E+00 1.01509E+02
 -1       373-4.20768E+01 5.31494E+00 9.79493E+01
 -1       374-4.68738E+01 3.45224E+00 1.16617E+02
 -1       375-4.68738E+01 3.45224E+00 1.11617E+02
 -1       376-4.19240E+01 5.36021E+00 1.08127E+02
 -1       377-4.51044E+01 4.26335E+00 1.21652E+02
 -1       378-4.51044E+01 4.26335E+00 1.26652E+02
 -1       379-4.10157E+01 5.61668E+00 1.18269E+02
 -1       380-4.70221E+01 3.37395E+00 1.36440E+02
 -1       381-4.70221E+01 3.37395E+00 1.31440E+02
 -1       382-4.11695E+01 5.57470E+00 1.28092E+02
 -1       383-4.60083E+01 3.87400E+00 1.46509E+02
 -1       384-4.60083E+01 3.87400E+00 1.41509E+02
 -1       385-4.20768E+01 5.31494E+00 1.37949E+02
 -1       386-4.68738E+01 3.45224E+00 1.56617E+02
 -1       387-4.68738E+01 3.45224E+00 1.51617E+02
 -1       388-4.19240E+01 5.36021E+00 1.48127E+02
 -1       389-4.51044E+01 4.26335E+00 1.61652E+02
 -1       390-4.51044E+01 4.26335E+00 1.66652E+02
 -1       391-4.10157E+01 5.61668E+00 1.58269E+02
 -1       392-4.70221E+01 3.37395E+00 1.76440E+02
 -1       393-4.70221E+01 3.37395E+00 1.71440E+02
 -1       394-4.11695E+01 5.57470E+00 1.68092E+02
 -1       395-4.60083E+01 3.87400E+00 1.86509E+02
 -1       396-4.60083E+01 3.87400E+00 1.81509E+02
 -1       397-4.20768E+01 5.31494E+00 1.77949E+02
 -1       398-4.68738E+01 3.45224E+00 1.96617E+02
 -1       399-4.68738E+01 3.45224E+00 1.91617E+02
 -1       400-4.19240E+01 5.36021E+00 1.88127E+02
 -1       401-4.51016E+01 4.26451E+00 2.01648E+02
 -1       402-4.51016E+01 4.26451E+00 2.06648E+02
 -1       403-4.10129E+01 5.61746E+00 1.98265E+02
 -1       404-4.69503E+01 3.41211E+00 2.16343E+02
 -1       405-4.69503E+01 3.41211E+00 2.11343E+02
 -1       406-4.10921E+01 5.59590E+00 2.07991E+02
 -1       407-4.71020E+01 3.33094E+00 2.24812E+02
 -1       408-4.71020E+01 3.33094E+00 2.29812E+02
 -1       409-4.52724E+01 4.19430E+00 2.20544E+02
 -1       410-4.14206E+01 5.50491E+00 2.25356E+02
 -1       411-4.12632E+01 5.54885E+00 2.16888E+02
 -1       412-4.71020E+01 3.33094E+00 2.34812E+02
 -1       413-4.49686E+01 4.31818E+00 2.48359E+02
 -1       414-4.49686E+01 4.31818E+00 2.43359E+02
 -1       415-4.47137E+01 4.41875E+00 2.38686E+02
 -1       416-4.08623E+01 5.65801E+00 2.33498E+02
 -1       417-3.86778E+01 6.19087E+00 2.42044E+02
 -1       418-4.58025E+01 3.96669E+00 2.53117E+02
 -1       419-4.58025E+01 3.96669E+00 2.58117E+02
 -1       420-3.97804E+01 5.93434E+00 2.51475E+02
 -1       421-4.70464E+01 3.36095E+00 2.67114E+02
 -1       422-4.70464E+01 3.36095E+00 2.62114E+02
 -1       423-4.18948E+01 5.36878E+00 2.60231E+02
 -1       424-4.61671E+01 3.80061E+00 2.75490E+02
 -1       425-4.61671E+01 3.80061E+00 2.70490E+02
 -1       426-4.22621E+01 5.25921E+00 2.67604E+02
 -1       427-4.58719E+01 3.93573E+00 2.87245E+02
 -1       428-4.58719E+01 3.93573E+00 2.82245E+02
 -1       429-4.43074E+01 4.57317E+00 2.79203E+02
 -1       430-3.91876E+01 6.07524E+00 2.81448E+02
 -1       431-3.94900E+01 6.00426E+00 2.74693E+02
 -1       432-4.45648E+01 4.47615E+00 2.90945E+02
 -1       433-3.99794E+01 5.88542E+00 2.95945E+02
 -1       434-3.94455E+01 6.01481E+00 2.88190E+02
 -1       435-3.31732E+01 7.16404E+00 2.95945E+02
 -1       436-1.15388E+01 7.82886E+00 2.93645E+02
 -1       437-2.09687E+01 7.99775E+00 2.93645E+02
 -1       438-2.78873E+01 7.71721E+00 2.92354E+02
 -1       439-2.06729E+01 7.99980E+00 2.85998E+02
 -1       440-3.28798E+01 7.20359E+00 2.88298E+02
 -1       441-1.29354E+00 7.23652E+00 2.92437E+02
 -1       442 8.64463E+00 6.34824E+00 2.92437E+02
 -1       443-3.50196E+00 7.39457E+00 2.86081E+02
 -1       444 2.06859E+01 4.93491E+00 2.93308E+02
 -1       445 1.87721E+01 5.18204E+00 2.85745E+02
 -1       446 4.02346E+01 1.94803E+00 3.57073E+01
 -1       447 4.02346E+01 1.94803E+00 2.57073E+01
 -1       448 2.98833E+01 3.63446E+00 2.03679E+01
 -1       449 4.32728E+01 1.40657E+00 5.29237E+01
 -1       450 4.32728E+01 1.40657E+00 4.29237E+01
 -1       451 3.34731E+01 3.07667E+00 3.86310E+01
 -1       452 4.08124E+01 1.84672E+00 7.73312E+01
 -1       453 4.08124E+01 1.84672E+00 6.73312E+01
 -1       454 3.23492E+01 3.25434E+00 5.24032E+01
 -1       455 3.91134E+01 2.14237E+00 5.94795E+01
 -1       456 2.98790E+01 3.63511E+00 6.68108E+01
 -1       457 4.10140E+01 1.81119E+00 9.74569E+01
 -1       458 4.10140E+01 1.81119E+00 8.74569E+01
 -1       459 3.17858E+01 3.34236E+00 8.47882E+01
 -1       460 4.10200E+01 1.81014E+00 1.17462E+02
 -1       461 4.10200E+01 1.81014E+00 1.07462E+02
 -1       462 3.19941E+01 3.30990E+00 1.04919E+02
 -1       463 4.10202E+01 1.81011E+00 1.37463E+02
 -1       464 4.10202E+01 1.81011E+00 1.27463E+02
 -1       465 3.20003E+01 3.30894E+00 1.24925E+02
 -1       466 4.10202E+01 1.81011E+00 1.57463E+02
 -1       467 4.10202E+01 1.81011E+00 1.47463E+02
 -1       468 3.20005E+01 3.30891E+00 1.44925E+02
 -1       469 4.10202E+01 1.81011E+00 1.77463E+02
 -1       470 4.10202E+01 1.81011E+00 1.67463E+02
 -1       471 3.20005E+01 3.30891E+00 1.64925E+02
 -1       472 4.10202E+01 1.81011E+00 1.97463E+02
 -1       473 4.10202E+01 1.81011E+00 1.87463E+02
 -1       474 3.20005E+01 3.30891E+00 1.84925E+02
 -1       475 4.23825E+01 1.56750E+00 2.14390E+02
 -1       476 4.23825E+01 1.56750E+00 2.04390E+02
 -1       477 3.33674E+01 3.09350E+00 2.01852E+02
 -1       478 4.17113E+01 1.68758E+00 2.36205E+02
 -1       479 4.17113E+01 1.68758E+00 2.26205E+02
 -1       480 3.14126E+01 3.40029E+00 2.14106E+02
 -1       481 3.90709E+01 2.14969E+00 2.19717E+02
 -1       482 3.07387E+01 3.50411E+00 2.25922E+02
 -1       483 4.20157E+01 1.63325E+00 2.54098E+02
 -1       484 4.20157E+01 1.63325E+00 2.44098E+02
 -1       485 3.36925E+01 3.04166E+00 2.40303E+02
 -1       486 4.51841E+01 1.05460E+00 2.75836E+02
 -1       487 4.51841E+01 1.05460E+00 2.65836E+02
 -1       488 3.48664E+01 2.85252E+00 2.68153E+02
 -1       489 3.97102E+01 2.03928E+00 2.62317E+02
 -1       490 3.16855E+01 3.35796E+00 2.56415E+02
 -1       491 3.55686E+01 2.73790E+00 2.79144E+02
 -1       492-3.24156E+01 7.26389E+00 4.65481E+00
 -1       493-1.32647E+01 7.89010E+00 6.46591E+00
 -1       494-2.26969E+01 7.96998E+00 6.46591E+00
 -1       495-3.21711E+01 7.29456E+00 1.14083E+01
 -1       496-2.79367E+01 7.71350E+00 6.75346E+00
 -1       497-2.24505E+01 7.97558E+00 1.32194E+01
 -1       498-1.08115E+00 7.22051E+00 5.65176E+00
 -1       499 8.85648E+00 6.32640E+00 5.65176E+00
 -1       500-7.58125E+00 7.64412E+00 7.55322E+00
 -1       501 6.60962E-01 7.08404E+00 1.32050E+01
 -1       502-1.15183E+01 7.82806E+00 1.40191E+01
 -1       503 1.99659E+01 5.02885E+00 4.66054E+00
 -1       504 1.82630E+01 5.24640E+00 1.03123E+01
 -1       505-3.68237E+01 6.57176E+00 2.30323E+02
 -1       506-3.49224E+01 6.90429E+00 2.26055E+02
 -1       507-3.43836E+01 6.98879E+00 2.21144E+02
 -1       508-2.97037E+01 7.56353E+00 2.26111E+02
 -1       509-3.85281E+01 6.22389E+00 2.12521E+02
 -1       510-3.67947E+01 6.57726E+00 2.16722E+02
 -1       511-3.15934E+01 7.36406E+00 2.16778E+02
 -1       512-3.43508E+01 6.99380E+00 2.34197E+02
 -1       513-1.95687E+01 8.00123E+00 4.93072E+01
 -1       514-1.38010E+01 7.90659E+00 4.89783E+01
 -1       515-1.53308E+01 7.94677E+00 4.47950E+01
 -1       516-1.36763E+01 7.90287E+00 3.82762E+01
 -1       517-1.94439E+01 8.00089E+00 3.86052E+01
 -1       518-2.50651E+01 7.88733E+00 5.24754E+01
 -1       519-2.65940E+01 7.80520E+00 4.82922E+01
 -1       520-2.56456E+01 7.85888E+00 4.26236E+01
 -1       521-2.39915E+01 7.93136E+00 3.61048E+01
 -1       522-3.11263E+01 7.41728E+00 4.57918E+01
 -1       523-1.06918E+01 7.79439E+00 5.49593E+01
 -1       524-6.45922E+00 7.58120E+00 5.04471E+01
 -1       525 9.57301E-01 7.05992E+00 5.05857E+01
 -1       526-2.14446E+00 7.29924E+00 4.46047E+01
 -1       527 2.44674E+00 6.93481E+00 3.64191E+01
 -1       528-4.96726E+00 7.49073E+00 3.62804E+01
 -1       529-9.07388E+00 7.72077E+00 3.00906E+01
 -1       530-1.58055E+01 7.95711E+00 6.02787E+01
 -1       531-8.46138E+00 7.69031E+00 6.17475E+01
 -1       532-2.93929E+01 7.59240E+00 5.61510E+01
 -1       533-2.23752E+01 7.97719E+00 5.71661E+01
 -1       534-2.01411E+01 8.00159E+00 6.39543E+01
 -1       535 4.75857E+00 6.72816E+00 5.59656E+01
 -1       536 9.06164E+00 6.30514E+00 5.01233E+01
 -1       537 2.24275E-01 7.11910E+00 6.15387E+01
 -1       538 8.33010E+00 6.38046E+00 6.10762E+01
 -1       539-4.87859E+00 7.48512E+00 6.68581E+01
 -1       540-3.28011E+01 7.21401E+00 2.58630E+02
 -1       541-2.93245E+01 7.59861E+00 2.63156E+02
 -1       542-2.70077E+01 7.77893E+00 2.58761E+02
 -1       543-2.24607E+01 7.97536E+00 2.53190E+02
 -1       544-1.89654E+01 7.99883E+00 2.57716E+02
 -1       545-3.55900E+01 6.79377E+00 2.55234E+02
 -1       546-3.78749E+01 6.36318E+00 2.59629E+02
 -1       547-2.90152E+01 7.62603E+00 2.48748E+02
 -1       548-2.09777E+01 7.99768E+00 2.47703E+02
 -1       549-3.32648E+01 7.15146E+00 2.44989E+02
 -1       550-3.47336E+01 6.93437E+00 2.50476E+02
 -1       551-2.59809E+01 7.84092E+00 2.68449E+02
 -1       552-3.17803E+01 7.34202E+00 2.68319E+02
 -1       553-1.76211E+01 7.98700E+00 2.64856E+02
 -1       554-1.30734E+01 7.88392E+00 2.59286E+02
 -1       555-2.10628E+01 7.99694E+00 2.69441E+02
 -1       556-1.51697E+01 7.94303E+00 2.71011E+02
 -1       557-2.35309E+01 7.94689E+00 2.74604E+02
 -1       558-3.91639E+01 6.08073E+00 2.63627E+02
 -1       559-3.82499E+01 6.28416E+00 2.67002E+02
 -1       560-3.49519E+01 6.89954E+00 2.72296E+02
 -1       561-1.69855E+01 7.97832E+00 2.44509E+02
 -1       562-2.35475E+01 7.94636E+00 2.40067E+02
 -1       563-3.30039E+01 7.18700E+00 2.40316E+02
 -1       564-2.88919E+01 7.63667E+00 2.37141E+02
 -1       565-2.49066E+01 7.89453E+00 2.33947E+02
 -1       566-6.07863E+00 7.55885E+00 2.64096E+02
 -1       567-7.42053E+00 7.63539E+00 2.56955E+02
 -1       568 1.62851E+00 7.00434E+00 2.54927E+02
 -1       569-5.35489E+00 7.51497E+00 2.50117E+02
 -1       570-1.14239E+01 7.82435E+00 2.44230E+02
 -1       571-2.36705E+00 7.31528E+00 2.42202E+02
 -1       572-1.39915E+01 7.91215E+00 2.36593E+02
 -1       573-4.14950E-02 7.14017E+00 2.26585E+02
 -1       574 8.80098E+00 6.33213E+00 2.26181E+02
 -1       575 2.04614E+00 6.96909E+00 2.19368E+02
 -1       576 5.66392E+00 6.64323E+00 2.13441E+02
 -1       577-3.18540E+00 7.37287E+00 2.13846E+02
 -1       578-7.62142E+00 7.64629E+00 2.28043E+02
 -1       579-8.50934E-01 7.20300E+00 2.34856E+02
 -1       580-6.66390E+00 7.59301E+00 2.06430E+02
 -1       581-1.02919E+01 7.77713E+00 2.12357E+02
 -1       582-1.35425E+01 7.89880E+00 2.30738E+02
 -1       583-1.27310E+01 7.87248E+00 2.22467E+02