    1C
    1UUSER                                                              
    1UDATE              02.september.2024                               
    1UTIME              16:25:15                                        
    1UHOST                                                              
    1UPGM               CalculiX                                        
    1UVERSION           Version 2.20                             
    1UCOMPILETIME       Sun Jul 31 18:08:37 CEST 2022                    
    1UDIR                                                               
    1UDBN                                                               
    1UMAT    1EL                                                        
    2C                          2353                                     1
 -1         1-5.00000E-02 0.00000E+00 0.00000E+00
 -1         2-5.00000E-02 0.00000E+00 3.00000E-01
 -1         3 5.00070E-02 1.26000E-04 3.00000E-01
 -1         4 5.00070E-02 1.26000E-04 0.00000E+00
 -1         5 4.99930E-02-1.26000E-04 3.00000E-01
 -1         6 4.99930E-02-1.26000E-04 0.00000E+00
 -1         7-5.00000E-02 0.00000E+00 1.00000E-02
 -1         8-5.00000E-02 0.00000E+00 2.00000E-02
 -1         9-5.00000E-02 0.00000E+00 3.00000E-02
 -1        10-5.00000E-02 0.00000E+00 4.00000E-02
 -1        11-5.00000E-02 0.00000E+00 5.00000E-02
 -1        12-5.00000E-02 0.00000E+00 6.00000E-02
 -1        13-5.00000E-02 0.00000E+00 7.00000E-02
 -1        14-5.00000E-02 0.00000E+00 8.00000E-02
 -1        15-5.00000E-02 0.00000E+00 9.00000E-02
 -1        16-5.00000E-02 0.00000E+00 1.00000E-01
 -1        17-5.00000E-02 0.00000E+00 1.10000E-01
 -1        18-5.00000E-02 0.00000E+00 1.20000E-01
 -1        19-5.00000E-02 0.00000E+00 1.30000E-01
 -1        20-5.00000E-02 0.00000E+00 1.40000E-01
 -1        21-5.00000E-02 0.00000E+00 1.50000E-01
 -1        22-5.00000E-02 0.00000E+00 1.60000E-01
 -1        23-5.00000E-02 0.00000E+00 1.70000E-01
 -1        24-5.00000E-02 0.00000E+00 1.80000E-01
 -1        25-5.00000E-02 0.00000E+00 1.90000E-01
 -1        26-5.00000E-02 0.00000E+00 2.00000E-01
 -1        27-5.00000E-02 0.00000E+00 2.10000E-01
 -1        28-5.00000E-02 0.00000E+00 2.20000E-01
 -1        29-5.00000E-02 0.00000E+00 2.30000E-01
 -1        30-5.00000E-02 0.00000E+00 2.40000E-01
 -1        31-5.00000E-02 0.00000E+00 2.50000E-01
 -1        32-5.00000E-02 0.00000E+00 2.60000E-01
 -1        33-5.00000E-02 0.00000E+00 2.70000E-01
 -1        34-5.00000E-02 0.00000E+00 2.80000E-01
 -1        35-5.00000E-02 0.00000E+00 2.90000E-01
 -1        36-5.00000E-02 0.00000E+00 5.00000E-03
 -1        37-5.00000E-02 0.00000E+00 1.50000E-02
 -1        38-5.00000E-02 0.00000E+00 2.50000E-02
 -1        39-5.00000E-02 0.00000E+00 3.50000E-02
 -1        40-5.00000E-02 0.00000E+00 4.50000E-02
 -1        41-5.00000E-02 0.00000E+00 5.50000E-02
 -1        42-5.00000E-02 0.00000E+00 6.50000E-02
 -1        43-5.00000E-02 0.00000E+00 7.50000E-02
 -1        44-5.00000E-02 0.00000E+00 8.50000E-02
 -1        45-5.00000E-02 0.00000E+00 9.50000E-02
 -1        46-5.00000E-02 0.00000E+00 1.05000E-01
 -1        47-5.00000E-02 0.00000E+00 1.15000E-01
 -1        48-5.00000E-02 0.00000E+00 1.25000E-01
 -1        49-5.00000E-02 0.00000E+00 1.35000E-01
 -1        50-5.00000E-02 0.00000E+00 1.45000E-01
 -1        51-5.00000E-02 0.00000E+00 1.55000E-01
 -1        52-5.00000E-02 0.00000E+00 1.65000E-01
 -1        53-5.00000E-02 0.00000E+00 1.75000E-01
 -1        54-5.00000E-02 0.00000E+00 1.85000E-01
 -1        55-5.00000E-02 0.00000E+00 1.95000E-01
 -1        56-5.00000E-02 0.00000E+00 2.05000E-01
 -1        57-5.00000E-02 0.00000E+00 2.15000E-01
 -1        58-5.00000E-02 0.00000E+00 2.25000E-01
 -1        59-5.00000E-02 0.00000E+00 2.35000E-01
 -1        60-5.00000E-02 0.00000E+00 2.45000E-01
 -1        61-5.00000E-02 0.00000E+00 2.55000E-01
 -1        62-5.00000E-02 0.00000E+00 2.65000E-01
 -1        63-5.00000E-02 0.00000E+00 2.75000E-01
 -1        64-5.00000E-02 0.00000E+00 2.85000E-01
 -1        65-5.00000E-02 0.00000E+00 2.95000E-01
 -1        66-4.18220E-02 5.39000E-03 3.00000E-01
 -1        67-2.81820E-02 7.69500E-03 3.00000E-01
 -1        68-9.32700E-03 7.73300E-03 3.00000E-01
 -1        69 1.05640E-02 6.14600E-03 3.00000E-01
 -1        70 3.03510E-02 3.56300E-03 3.00000E-01
 -1        71-4.66510E-02 3.56600E-03 3.00000E-01
 -1        72-3.50610E-02 6.88200E-03 3.00000E-01
 -1        73-1.87560E-02 7.99800E-03 3.00000E-01
 -1        74 6.30000E-04 7.08700E-03 3.00000E-01
 -1        75 2.04710E-02 4.96300E-03 3.00000E-01
 -1        76 4.01980E-02 1.95400E-03 3.00000E-01
 -1        77 5.00070E-02 1.26000E-04 2.00000E-02
 -1        78 5.00070E-02 1.26000E-04 4.00000E-02
 -1        79 5.00070E-02 1.26000E-04 6.00000E-02
 -1        80 5.00070E-02 1.26000E-04 8.00000E-02
 -1        81 5.00070E-02 1.26000E-04 1.00000E-01
 -1        82 5.00070E-02 1.26000E-04 1.20000E-01
 -1        83 5.00070E-02 1.26000E-04 1.40000E-01
 -1        84 5.00070E-02 1.26000E-04 1.60000E-01
 -1        85 5.00070E-02 1.26000E-04 1.80000E-01
 -1        86 5.00070E-02 1.26000E-04 2.00000E-01
 -1        87 5.00070E-02 1.26000E-04 2.20000E-01
 -1        88 5.00070E-02 1.26000E-04 2.40000E-01
 -1        89 5.00070E-02 1.26000E-04 2.60000E-01
 -1        90 5.00070E-02 1.26000E-04 2.80000E-01
 -1        91 5.00070E-02 1.26000E-04 1.00000E-02
 -1        92 5.00070E-02 1.26000E-04 3.00000E-02
 -1        93 5.00070E-02 1.26000E-04 5.00000E-02
 -1        94 5.00070E-02 1.26000E-04 7.00000E-02
 -1        95 5.00070E-02 1.26000E-04 9.00000E-02
 -1        96 5.00070E-02 1.26000E-04 1.10000E-01
 -1        97 5.00070E-02 1.26000E-04 1.30000E-01
 -1        98 5.00070E-02 1.26000E-04 1.50000E-01
 -1        99 5.00070E-02 1.26000E-04 1.70000E-01
 -1       100 5.00070E-02 1.26000E-04 1.90000E-01
 -1       101 5.00070E-02 1.26000E-04 2.10000E-01
 -1       102 5.00070E-02 1.26000E-04 2.30000E-01
 -1       103 5.00070E-02 1.26000E-04 2.50000E-01
 -1       104 5.00070E-02 1.26000E-04 2.70000E-01
 -1       105 5.00070E-02 1.26000E-04 2.90000E-01
 -1       106-4.18220E-02 5.39000E-03 0.00000E+00
 -1       107-2.81820E-02 7.69500E-03 0.00000E+00
 -1       108-9.32700E-03 7.73300E-03 0.00000E+00
 -1       109 1.05640E-02 6.14600E-03 0.00000E+00
 -1       110 3.03510E-02 3.56300E-03 0.00000E+00
 -1       111-4.66510E-02 3.56600E-03 0.00000E+00
 -1       112-3.50610E-02 6.88200E-03 0.00000E+00
 -1       113-1.87560E-02 7.99800E-03 0.00000E+00
 -1       114 6.30000E-04 7.08700E-03 0.00000E+00
 -1       115 2.04710E-02 4.96300E-03 0.00000E+00
 -1       116 4.01980E-02 1.95400E-03 0.00000E+00
 -1       117 5.00000E-02-0.00000E+00 3.00000E-01
 -1       118 4.99930E-02-1.26000E-04 2.00000E-02
 -1       119 4.99930E-02-1.26000E-04 4.00000E-02
 -1       120 4.99930E-02-1.26000E-04 6.00000E-02
 -1       121 4.99930E-02-1.26000E-04 8.00000E-02
 -1       122 4.99930E-02-1.26000E-04 1.00000E-01
 -1       123 4.99930E-02-1.26000E-04 1.20000E-01
 -1       124 4.99930E-02-1.26000E-04 1.40000E-01
 -1       125 4.99930E-02-1.26000E-04 1.60000E-01
 -1       126 4.99930E-02-1.26000E-04 1.80000E-01
 -1       127 4.99930E-02-1.26000E-04 2.00000E-01
 -1       128 4.99930E-02-1.26000E-04 2.20000E-01
 -1       129 4.99930E-02-1.26000E-04 2.40000E-01
 -1       130 4.99930E-02-1.26000E-04 2.60000E-01
 -1       131 4.99930E-02-1.26000E-04 2.80000E-01
 -1       132 4.99930E-02-1.26000E-04 1.00000E-02
 -1       133 4.99930E-02-1.26000E-04 3.00000E-02
 -1       134 4.99930E-02-1.26000E-04 5.00000E-02
 -1       135 4.99930E-02-1.26000E-04 7.00000E-02
 -1       136 4.99930E-02-1.26000E-04 9.00000E-02
 -1       137 4.99930E-02-1.26000E-04 1.10000E-01
 -1       138 4.99930E-02-1.26000E-04 1.30000E-01
 -1       139 4.99930E-02-1.26000E-04 1.50000E-01
 -1       140 4.99930E-02-1.26000E-04 1.70000E-01
 -1       141 4.99930E-02-1.26000E-04 1.90000E-01
 -1       142 4.99930E-02-1.26000E-04 2.10000E-01
 -1       143 4.99930E-02-1.26000E-04 2.30000E-01
 -1       144 4.99930E-02-1.26000E-04 2.50000E-01
 -1       145 4.99930E-02-1.26000E-04 2.70000E-01
 -1       146 4.99930E-02-1.26000E-04 2.90000E-01
 -1       147 5.00000E-02-0.00000E+00 0.00000E+00
 -1       148-4.08910E-02-3.43500E-03 0.00000E+00
 -1       149-2.71930E-02-3.98200E-03 0.00000E+00
 -1       150-8.64300E-03-3.80000E-03 0.00000E+00
 -1       151 1.09200E-02-2.86900E-03 0.00000E+00
 -1       152 3.04630E-02-1.60100E-03 0.00000E+00
 -1       153-4.59300E-02-2.63700E-03 0.00000E+00
 -1       154-3.40480E-02-3.85400E-03 0.00000E+00
 -1       155-1.79170E-02-3.99400E-03 0.00000E+00
 -1       156 1.14100E-03-3.39800E-03 0.00000E+00
 -1       157 2.06930E-02-2.26200E-03 0.00000E+00
 -1       158 4.02300E-02-8.93000E-04 0.00000E+00
 -1       159-4.08910E-02-3.43500E-03 3.00000E-01
 -1       160-2.71930E-02-3.98200E-03 3.00000E-01
 -1       161-8.64300E-03-3.80000E-03 3.00000E-01
 -1       162 1.09200E-02-2.86900E-03 3.00000E-01
 -1       163 3.04630E-02-1.60100E-03 3.00000E-01
 -1       164-4.59300E-02-2.63700E-03 3.00000E-01
 -1       165-3.40480E-02-3.85400E-03 3.00000E-01
 -1       166-1.79170E-02-3.99400E-03 3.00000E-01
 -1       167 1.14100E-03-3.39800E-03 3.00000E-01
 -1       168 2.06930E-02-2.26200E-03 3.00000E-01
 -1       169 4.02300E-02-8.93000E-04 3.00000E-01
 -1       170-3.95490E-02 5.99000E-03 2.21089E-01
 -1       171-4.32690E-02 4.93900E-03 2.29624E-01
 -1       172-2.10990E-02 7.99700E-03 4.51240E-02
 -1       173-9.56600E-03 7.74400E-03 4.44660E-02
 -1       174-1.80380E-02 7.99200E-03 5.34900E-02
 -1       175-3.35400E-03 7.38400E-03 5.64280E-02
 -1       176-3.04930E-02 7.48500E-03 2.54235E-01
 -1       177-2.35140E-02 7.94700E-03 2.63286E-01
 -1       178-3.51010E-02 6.87500E-03 2.63025E-01
 -1       179-2.75360E-02 7.74300E-03 2.43261E-01
 -1       180-1.44170E-02 7.92400E-03 2.52145E-01
 -1       181-6.81100E-03 7.60100E-03 2.19772E-01
 -1       182 1.08840E-02 6.11200E-03 2.18963E-01
 -1       183 6.71700E-03 6.54200E-03 2.33398E-01
 -1       184 5.26500E-03 6.68100E-03 4.47430E-02
 -1       185-3.73000E-04 7.16600E-03 2.80950E-02
 -1       186-6.92600E-03 7.60800E-03 1.95089E-01
 -1       187 1.23340E-02 5.95200E-03 1.95373E-01
 -1       188 4.37000E-04 7.10200E-03 2.07919E-01
 -1       189-1.77890E-02 7.98900E-03 3.20860E-02
 -1       190 4.24900E-03 6.77500E-03 1.43833E-01
 -1       191 4.37000E-04 7.10200E-03 1.27920E-01
 -1       192 1.44450E-02 5.71000E-03 1.35943E-01
 -1       193-8.31300E-03 7.68300E-03 1.38671E-01
 -1       194-6.92600E-03 7.60800E-03 1.55089E-01
 -1       195 1.23340E-02 5.95200E-03 1.55373E-01
 -1       196 4.37000E-04 7.10200E-03 1.67920E-01
 -1       197 4.24900E-03 6.77500E-03 1.83833E-01
 -1       198 1.44450E-02 5.71000E-03 1.75943E-01
 -1       199-8.31300E-03 7.68300E-03 1.78671E-01
 -1       200 2.04510E-02 4.96600E-03 4.42720E-02
 -1       201 2.81730E-02 3.89000E-03 5.89590E-02
 -1       202 1.28550E-02 5.89300E-03 5.55030E-02
 -1       203-6.92600E-03 7.60800E-03 1.15089E-01
 -1       204 1.16460E-02 6.02800E-03 1.17216E-01
 -1       205 3.65190E-02 2.58100E-03 4.58470E-02
 -1       206-5.10000E-03 7.49900E-03 9.93230E-02
 -1       207 1.16460E-02 6.02800E-03 9.72160E-02
 -1       208 3.80000E-03 6.81600E-03 1.06649E-01
 -1       209-4.69900E-03 7.47400E-03 7.72230E-02
 -1       210 1.16460E-02 6.02800E-03 7.72160E-02
 -1       211 3.44200E-03 6.84800E-03 8.67340E-02
 -1       212 1.88880E-02 5.16700E-03 2.42533E-01
 -1       213 1.98850E-02 5.03900E-03 2.29593E-01
 -1       214 3.80000E-03 6.81600E-03 6.66490E-02
 -1       215-4.06220E-02 5.72200E-03 2.56233E-01
 -1       216-3.89350E-02 6.13300E-03 2.46717E-01
 -1       217 3.04240E-02 3.55200E-03 3.14150E-02
 -1       218 1.58930E-02 5.53800E-03 3.41230E-02
 -1       219 1.92240E-02 5.12400E-03 2.06769E-01
 -1       220 3.20000E-02 3.30900E-03 1.94925E-01
 -1       221 3.47340E-02 2.87400E-03 2.08779E-01
 -1       222 2.00260E-02 5.02100E-03 1.84502E-01
 -1       223 3.20000E-02 3.30900E-03 1.74925E-01
 -1       224 1.92240E-02 5.12400E-03 1.66769E-01
 -1       225 2.80880E-02 3.90300E-03 2.19433E-01
 -1       226 3.20000E-02 3.30900E-03 1.54925E-01
 -1       227 2.00260E-02 5.02100E-03 1.44502E-01
 -1       228-4.34000E-04 7.17100E-03 2.61765E-01
 -1       229-1.17300E-02 7.83600E-03 2.66426E-01
 -1       230-4.40250E-02 4.67700E-03 6.37910E-02
 -1       231-4.11340E-02 5.58400E-03 7.11570E-02
 -1       232-8.43200E-03 7.68900E-03 2.36314E-01
 -1       233 3.69000E-03 6.82600E-03 2.48089E-01
 -1       234-3.02460E-02 7.51100E-03 2.31022E-01
 -1       235-3.84200E-02 6.24700E-03 2.37371E-01
 -1       236 3.20000E-02 3.30900E-03 1.34925E-01
 -1       237 1.92240E-02 5.12400E-03 1.26769E-01
 -1       238 1.14570E-02 6.04900E-03 2.70742E-01
 -1       239 2.93710E-02 3.71200E-03 2.64634E-01
 -1       240 2.41600E-02 4.46500E-03 2.75179E-01
 -1       241 4.03510E-02 1.92800E-03 2.71672E-01
 -1       242 3.20000E-02 3.30900E-03 1.14925E-01
 -1       243 1.92240E-02 5.12400E-03 1.06769E-01
 -1       244 3.19880E-02 3.31100E-03 9.49140E-02
 -1       245 1.92240E-02 5.12400E-03 8.67690E-02
 -1       246 3.15840E-02 3.37400E-03 7.46620E-02
 -1       247 1.92240E-02 5.12400E-03 6.67690E-02
 -1       248 3.33870E-02 3.09000E-03 2.32410E-01
 -1       249 3.39980E-02 2.99300E-03 2.48197E-01
 -1       250 6.72500E-03 6.54100E-03 2.84873E-01
 -1       251-1.37520E-02 7.90500E-03 2.87289E-01
 -1       252-3.62000E-03 7.40300E-03 2.75838E-01
 -1       253-2.76910E-02 7.73200E-03 1.35070E-02
 -1       254-3.66210E-02 6.61000E-03 9.31000E-03
 -1       255-3.81200E-02 6.31200E-03 2.91889E-01
 -1       256-2.75920E-02 7.73900E-03 2.84708E-01
 -1       257 1.65580E-02 5.45800E-03 2.55947E-01
 -1       258-1.86110E-02 7.99700E-03 2.75596E-01
 -1       259-2.84440E-02 7.67400E-03 2.73612E-01
 -1       260-3.76010E-02 6.41900E-03 2.78406E-01
 -1       261-4.07630E-02 5.68400E-03 2.84490E-01
 -1       262-4.31060E-02 4.99300E-03 9.28800E-02
 -1       263-3.80470E-02 6.32700E-03 8.26370E-02
 -1       264-3.40180E-02 7.04400E-03 9.23560E-02
 -1       265-2.64740E-02 7.81300E-03 8.38320E-02
 -1       266-4.29590E-02 5.04100E-03 2.12687E-01
 -1       267-3.92040E-02 6.07200E-03 2.03295E-01
 -1       268-3.40180E-02 7.04400E-03 2.12356E-01
 -1       269-2.68440E-02 7.79000E-03 2.03228E-01
 -1       270-4.31060E-02 4.99300E-03 1.72880E-01
 -1       271-3.92090E-02 6.07000E-03 1.63303E-01
 -1       272-3.40180E-02 7.04400E-03 1.72356E-01
 -1       273-2.68440E-02 7.79000E-03 1.63228E-01
 -1       274-4.31060E-02 4.99300E-03 1.32880E-01
 -1       275-3.92090E-02 6.07000E-03 1.23303E-01
 -1       276-3.40180E-02 7.04400E-03 1.32356E-01
 -1       277-2.68440E-02 7.79000E-03 1.23228E-01
 -1       278-3.10250E-02 7.42800E-03 2.96640E-02
 -1       279-4.10040E-02 5.62000E-03 2.60050E-02
 -1       280-3.40560E-02 7.03800E-03 2.01080E-02
 -1       281-4.37300E-02 4.78100E-03 1.67920E-02
 -1       282-2.33330E-02 7.95300E-03 2.27600E-02
 -1       283-4.48740E-02 4.35600E-03 8.63180E-02
 -1       284-4.13620E-02 5.52100E-03 2.70980E-01
 -1       285-4.02620E-02 5.81400E-03 3.54640E-02
 -1       286-4.10400E-02 5.61000E-03 1.83019E-01
 -1       287-4.28030E-02 5.09100E-03 1.93235E-01
 -1       288-4.10400E-02 5.61000E-03 1.43019E-01
 -1       289-4.28030E-02 5.09100E-03 1.53235E-01
 -1       290-4.10400E-02 5.61000E-03 1.03019E-01
 -1       291-4.28030E-02 5.09100E-03 1.13235E-01
 -1       292-3.20700E-02 7.30700E-03 5.14600E-02
 -1       293-3.62850E-02 6.67200E-03 6.12940E-02
 -1       294-4.27640E-02 5.10300E-03 5.40980E-02
 -1       295-2.67090E-02 7.79800E-03 6.08420E-02
 -1       296-2.91610E-02 7.61300E-03 2.21199E-01
 -1       297-3.25340E-02 7.24900E-03 1.91716E-01
 -1       298 2.93430E-02 3.71600E-03 9.32100E-03
 -1       299-2.91610E-02 7.61300E-03 1.81199E-01
 -1       300 3.07780E-02 3.49800E-03 2.86617E-01
 -1       301-3.25340E-02 7.24900E-03 1.51716E-01
 -1       302-2.91610E-02 7.61300E-03 1.41199E-01
 -1       303-3.25340E-02 7.24900E-03 1.11716E-01
 -1       304-1.95550E-02 8.00100E-03 2.36872E-01
 -1       305-2.91610E-02 7.61300E-03 1.01199E-01
 -1       306-3.01810E-02 7.51700E-03 4.01230E-02
 -1       307-2.04490E-02 8.00100E-03 2.13795E-01
 -1       308-1.86560E-02 7.99700E-03 2.25161E-01
 -1       309 1.80590E-02 5.27200E-03 2.20100E-02
 -1       310 7.14800E-03 6.49900E-03 1.13040E-02
 -1       311-2.86140E-02 7.66000E-03 7.23720E-02
 -1       312-1.72050E-02 7.98200E-03 1.29320E-02
 -1       313-1.92980E-02 8.00000E-03 1.95577E-01
 -1       314-1.37750E-02 7.90600E-03 2.04941E-01
 -1       315-2.29880E-02 7.96300E-03 1.74155E-01
 -1       316-1.92160E-02 8.00000E-03 1.85686E-01
 -1       317-1.92980E-02 8.00000E-03 1.55577E-01
 -1       318-1.37750E-02 7.90600E-03 1.64941E-01
 -1       319-5.83700E-03 7.54400E-03 1.51060E-02
 -1       320-2.29880E-02 7.96300E-03 1.34155E-01
 -1       321-1.92160E-02 8.00000E-03 1.45686E-01
 -1       322-1.92980E-02 8.00000E-03 1.15577E-01
 -1       323-1.37750E-02 7.90600E-03 1.24941E-01
 -1       324-4.31560E-02 4.97600E-03 2.64229E-01
 -1       325-2.16700E-02 7.99000E-03 9.48370E-02
 -1       326-1.92150E-02 8.00000E-03 1.05686E-01
 -1       327-4.10200E-02 5.61500E-03 4.47500E-02
 -1       328-1.74760E-02 7.98500E-03 7.62100E-02
 -1       329-1.19710E-02 7.84500E-03 8.54580E-02
 -1       330-1.35730E-02 7.90000E-03 6.70670E-02
 -1       331-1.18730E-02 7.84200E-03 2.24940E-02
 -1       332-4.63930E-02 3.69300E-03 5.00000E-03
 -1       333-4.63930E-02 3.69300E-03 2.95000E-01
 -1       334 3.05650E-02 3.53100E-03 2.93308E-01
 -1       335 4.04110E-02 1.91700E-03 2.93308E-01
 -1       336 4.04110E-02 1.91700E-03 2.83308E-01
 -1       337 3.96960E-02 2.04200E-03 1.46610E-02
 -1       338 3.96960E-02 2.04200E-03 4.66100E-03
 -1       339 2.98470E-02 3.64000E-03 4.66100E-03
 -1       340-4.73260E-02 3.20700E-03 1.33960E-02
 -1       341-4.73260E-02 3.20700E-03 1.83960E-02
 -1       342-4.38200E-02 4.75000E-03 9.65500E-03
 -1       343-3.92360E-02 6.06400E-03 4.65500E-03
 -1       344-4.02090E-02 5.82800E-03 1.30510E-02
 -1       345-4.59900E-02 3.88200E-03 2.30020E-02
 -1       346-4.59900E-02 3.88200E-03 2.80020E-02
 -1       347-4.23740E-02 5.22500E-03 2.13980E-02
 -1       348-4.56250E-02 4.04500E-03 3.27320E-02
 -1       349-4.56250E-02 4.04500E-03 3.77320E-02
 -1       350-4.06330E-02 5.71900E-03 3.07340E-02
 -1       351-4.59990E-02 3.87800E-03 4.23750E-02
 -1       352-4.59990E-02 3.87800E-03 4.73750E-02
 -1       353-4.06420E-02 5.71600E-03 4.01070E-02
 -1       354-4.68550E-02 3.46200E-03 5.70490E-02
 -1       355-4.68550E-02 3.46200E-03 5.20490E-02
 -1       356-4.18950E-02 5.36900E-03 4.94240E-02
 -1       357-4.74700E-02 3.12500E-03 6.68950E-02
 -1       358-4.74700E-02 3.12500E-03 6.18950E-02
 -1       359-4.33960E-02 4.89600E-03 5.89440E-02
 -1       360-4.60550E-02 3.85300E-03 7.55790E-02
 -1       361-4.60550E-02 3.85300E-03 7.05790E-02
 -1       362-4.25890E-02 5.15900E-03 6.74740E-02
 -1       363-4.78800E-02 2.87500E-03 8.81590E-02
 -1       364-4.78800E-02 2.87500E-03 8.31590E-02
 -1       365-4.45290E-02 4.49000E-03 8.13180E-02
 -1       366-3.95960E-02 5.97900E-03 7.68970E-02
 -1       367-4.15000E-02 5.48200E-03 8.44780E-02
 -1       368-4.70220E-02 3.37400E-03 9.64400E-02
 -1       369-4.70220E-02 3.37400E-03 9.14400E-02
 -1       370-4.39940E-02 4.68800E-03 8.95990E-02
 -1       371-4.60080E-02 3.87400E-03 1.06509E-01
 -1       372-4.60080E-02 3.87400E-03 1.01509E-01
 -1       373-4.20770E-02 5.31500E-03 9.79490E-02
 -1       374-4.68740E-02 3.45200E-03 1.16617E-01
 -1       375-4.68740E-02 3.45200E-03 1.11617E-01
 -1       376-4.19240E-02 5.36000E-03 1.08127E-01
 -1       377-4.51040E-02 4.26300E-03 1.21652E-01
 -1       378-4.51040E-02 4.26300E-03 1.26652E-01
 -1       379-4.10160E-02 5.61700E-03 1.18269E-01
 -1       380-4.70220E-02 3.37400E-03 1.36440E-01
 -1       381-4.70220E-02 3.37400E-03 1.31440E-01
 -1       382-4.11700E-02 5.57500E-03 1.28092E-01
 -1       383-4.60080E-02 3.87400E-03 1.46509E-01
 -1       384-4.60080E-02 3.87400E-03 1.41509E-01
 -1       385-4.20770E-02 5.31500E-03 1.37949E-01
 -1       386-4.68740E-02 3.45200E-03 1.56617E-01
 -1       387-4.68740E-02 3.45200E-03 1.51617E-01
 -1       388-4.19240E-02 5.36000E-03 1.48127E-01
 -1       389-4.51040E-02 4.26300E-03 1.61652E-01
 -1       390-4.51040E-02 4.26300E-03 1.66652E-01
 -1       391-4.10160E-02 5.61700E-03 1.58269E-01
 -1       392-4.70220E-02 3.37400E-03 1.76440E-01
 -1       393-4.70220E-02 3.37400E-03 1.71440E-01
 -1       394-4.11700E-02 5.57500E-03 1.68092E-01
 -1       395-4.60080E-02 3.87400E-03 1.86509E-01
 -1       396-4.60080E-02 3.87400E-03 1.81509E-01
 -1       397-4.20770E-02 5.31500E-03 1.77949E-01
 -1       398-4.68740E-02 3.45200E-03 1.96617E-01
 -1       399-4.68740E-02 3.45200E-03 1.91617E-01
 -1       400-4.19240E-02 5.36000E-03 1.88127E-01
 -1       401-4.51020E-02 4.26500E-03 2.01648E-01
 -1       402-4.51020E-02 4.26500E-03 2.06648E-01
 -1       403-4.10130E-02 5.61700E-03 1.98265E-01
 -1       404-4.69500E-02 3.41200E-03 2.16343E-01
 -1       405-4.69500E-02 3.41200E-03 2.11343E-01
 -1       406-4.10920E-02 5.59600E-03 2.07991E-01
 -1       407-4.71020E-02 3.33100E-03 2.24812E-01
 -1       408-4.71020E-02 3.33100E-03 2.29812E-01
 -1       409-4.52720E-02 4.19400E-03 2.20544E-01
 -1       410-4.14210E-02 5.50500E-03 2.25356E-01
 -1       411-4.12630E-02 5.54900E-03 2.16888E-01
 -1       412-4.71020E-02 3.33100E-03 2.34812E-01
 -1       413-4.49690E-02 4.31800E-03 2.48359E-01
 -1       414-4.49690E-02 4.31800E-03 2.43359E-01
 -1       415-4.47140E-02 4.41900E-03 2.38686E-01
 -1       416-4.08620E-02 5.65800E-03 2.33498E-01
 -1       417-3.86780E-02 6.19100E-03 2.42044E-01
 -1       418-4.58030E-02 3.96700E-03 2.53117E-01
 -1       419-4.58030E-02 3.96700E-03 2.58117E-01
 -1       420-3.97800E-02 5.93400E-03 2.51475E-01
 -1       421-4.70460E-02 3.36100E-03 2.67114E-01
 -1       422-4.70460E-02 3.36100E-03 2.62114E-01
 -1       423-4.18950E-02 5.36900E-03 2.60231E-01
 -1       424-4.61670E-02 3.80100E-03 2.75490E-01
 -1       425-4.61670E-02 3.80100E-03 2.70490E-01
 -1       426-4.22620E-02 5.25900E-03 2.67604E-01
 -1       427-4.58720E-02 3.93600E-03 2.87245E-01
 -1       428-4.58720E-02 3.93600E-03 2.82245E-01
 -1       429-4.43070E-02 4.57300E-03 2.79203E-01
 -1       430-3.91880E-02 6.07500E-03 2.81448E-01
 -1       431-3.94900E-02 6.00400E-03 2.74693E-01
 -1       432-4.45650E-02 4.47600E-03 2.90945E-01
 -1       433-3.99790E-02 5.88500E-03 2.95945E-01
 -1       434-3.94450E-02 6.01500E-03 2.88190E-01
 -1       435-3.31730E-02 7.16400E-03 2.95945E-01
 -1       436-1.15390E-02 7.82900E-03 2.93645E-01
 -1       437-2.09690E-02 7.99800E-03 2.93645E-01
 -1       438-2.78870E-02 7.71700E-03 2.92354E-01
 -1       439-2.06730E-02 8.00000E-03 2.85998E-01
 -1       440-3.28800E-02 7.20400E-03 2.88298E-01
 -1       441-1.29400E-03 7.23700E-03 2.92437E-01
 -1       442 8.64500E-03 6.34800E-03 2.92437E-01
 -1       443-3.50200E-03 7.39500E-03 2.86081E-01
 -1       444 2.06860E-02 4.93500E-03 2.93308E-01
 -1       445 1.87720E-02 5.18200E-03 2.85745E-01
 -1       446 4.02350E-02 1.94800E-03 3.57070E-02
 -1       447 4.02350E-02 1.94800E-03 2.57070E-02
 -1       448 2.98830E-02 3.63400E-03 2.03680E-02
 -1       449 4.32730E-02 1.40700E-03 5.29240E-02
 -1       450 4.32730E-02 1.40700E-03 4.29240E-02
 -1       451 3.34730E-02 3.07700E-03 3.86310E-02
 -1       452 4.08120E-02 1.84700E-03 7.73310E-02
 -1       453 4.08120E-02 1.84700E-03 6.73310E-02
 -1       454 3.23490E-02 3.25400E-03 5.24030E-02
 -1       455 3.91130E-02 2.14200E-03 5.94800E-02
 -1       456 2.98790E-02 3.63500E-03 6.68110E-02
 -1       457 4.10140E-02 1.81100E-03 9.74570E-02
 -1       458 4.10140E-02 1.81100E-03 8.74570E-02
 -1       459 3.17860E-02 3.34200E-03 8.47880E-02
 -1       460 4.10200E-02 1.81000E-03 1.17462E-01
 -1       461 4.10200E-02 1.81000E-03 1.07462E-01
 -1       462 3.19940E-02 3.31000E-03 1.04919E-01
 -1       463 4.10200E-02 1.81000E-03 1.37463E-01
 -1       464 4.10200E-02 1.81000E-03 1.27463E-01
 -1       465 3.20000E-02 3.30900E-03 1.24925E-01
 -1       466 4.10200E-02 1.81000E-03 1.57463E-01
 -1       467 4.10200E-02 1.81000E-03 1.47463E-01
 -1       468 3.20000E-02 3.30900E-03 1.44925E-01
 -1       469 4.10200E-02 1.81000E-03 1.77463E-01
 -1       470 4.10200E-02 1.81000E-03 1.67463E-01
 -1       471 3.20000E-02 3.30900E-03 1.64925E-01
 -1       472 4.10200E-02 1.81000E-03 1.97463E-01
 -1       473 4.10200E-02 1.81000E-03 1.87463E-01
 -1       474 3.20000E-02 3.30900E-03 1.84925E-01
 -1       475 4.23830E-02 1.56700E-03 2.14390E-01
 -1       476 4.23830E-02 1.56700E-03 2.04390E-01
 -1       477 3.33670E-02 3.09400E-03 2.01852E-01
 -1       478 4.17110E-02 1.68800E-03 2.36205E-01
 -1       479 4.17110E-02 1.68800E-03 2.26205E-01
 -1       480 3.14130E-02 3.40000E-03 2.14106E-01
 -1       481 3.90710E-02 2.15000E-03 2.19717E-01
 -1       482 3.07390E-02 3.50400E-03 2.25922E-01
 -1       483 4.20160E-02 1.63300E-03 2.54098E-01
 -1       484 4.20160E-02 1.63300E-03 2.44098E-01
 -1       485 3.36930E-02 3.04200E-03 2.40303E-01
 -1       486 4.51840E-02 1.05500E-03 2.75836E-01
 -1       487 4.51840E-02 1.05500E-03 2.65836E-01
 -1       488 3.48660E-02 2.85300E-03 2.68153E-01
 -1       489 3.97100E-02 2.03900E-03 2.62317E-01
 -1       490 3.16860E-02 3.35800E-03 2.56415E-01
 -1       491 3.55690E-02 2.73800E-03 2.79144E-01
 -1       492-3.24160E-02 7.26400E-03 4.65500E-03
 -1       493-1.32650E-02 7.89000E-03 6.46600E-03
 -1       494-2.26970E-02 7.97000E-03 6.46600E-03
 -1       495-3.21710E-02 7.29500E-03 1.14080E-02
 -1       496-2.79370E-02 7.71400E-03 6.75300E-03
 -1       497-2.24510E-02 7.97600E-03 1.32190E-02
 -1       498-1.08100E-03 7.22100E-03 5.65200E-03
 -1       499 8.85600E-03 6.32600E-03 5.65200E-03
 -1       500-7.58100E-03 7.64400E-03 7.55300E-03
 -1       501 6.61000E-04 7.08400E-03 1.32050E-02
 -1       502-1.15180E-02 7.82800E-03 1.40190E-02
 -1       503 1.99660E-02 5.02900E-03 4.66100E-03
 -1       504 1.82630E-02 5.24600E-03 1.03120E-02
 -1       505-3.68240E-02 6.57200E-03 2.30323E-01
 -1       506-3.49220E-02 6.90400E-03 2.26055E-01
 -1       507-3.43840E-02 6.98900E-03 2.21144E-01
 -1       508-2.97040E-02 7.56400E-03 2.26111E-01
 -1       509-3.85280E-02 6.22400E-03 2.12521E-01
 -1       510-3.67950E-02 6.57700E-03 2.16722E-01
 -1       511-3.15930E-02 7.36400E-03 2.16778E-01
 -1       512-3.43510E-02 6.99400E-03 2.34197E-01
 -1       513-1.95690E-02 8.00100E-03 4.93070E-02
 -1       514-1.38010E-02 7.90700E-03 4.89780E-02
 -1       515-1.53310E-02 7.94700E-03 4.47950E-02
 -1       516-1.36760E-02 7.90300E-03 3.82760E-02
 -1       517-1.94440E-02 8.00100E-03 3.86050E-02
 -1       518-2.50650E-02 7.88700E-03 5.24750E-02
 -1       519-2.65940E-02 7.80500E-03 4.82920E-02
 -1       520-2.56460E-02 7.85900E-03 4.26240E-02
 -1       521-2.39910E-02 7.93100E-03 3.61050E-02
 -1       522-3.11260E-02 7.41700E-03 4.57920E-02
 -1       523-1.06920E-02 7.79400E-03 5.49590E-02
 -1       524-6.45900E-03 7.58100E-03 5.04470E-02
 -1       525 9.57000E-04 7.06000E-03 5.05860E-02
 -1       526-2.14400E-03 7.29900E-03 4.46050E-02
 -1       527 2.44700E-03 6.93500E-03 3.64190E-02
 -1       528-4.96700E-03 7.49100E-03 3.62800E-02
 -1       529-9.07400E-03 7.72100E-03 3.00910E-02
 -1       530-1.58060E-02 7.95700E-03 6.02790E-02
 -1       531-8.46100E-03 7.69000E-03 6.17480E-02
 -1       532-2.93930E-02 7.59200E-03 5.61510E-02
 -1       533-2.23750E-02 7.97700E-03 5.71660E-02
 -1       534-2.01410E-02 8.00200E-03 6.39540E-02
 -1       535 4.75900E-03 6.72800E-03 5.59660E-02
 -1       536 9.06200E-03 6.30500E-03 5.01230E-02
 -1       537 2.24000E-04 7.11900E-03 6.15390E-02
 -1       538 8.33000E-03 6.38000E-03 6.10760E-02
 -1       539-4.87900E-03 7.48500E-03 6.68580E-02
 -1       540-3.28010E-02 7.21400E-03 2.58630E-01
 -1       541-2.93240E-02 7.59900E-03 2.63156E-01
 -1       542-2.70080E-02 7.77900E-03 2.58761E-01
 -1       543-2.24610E-02 7.97500E-03 2.53190E-01
 -1       544-1.89650E-02 7.99900E-03 2.57716E-01
 -1       545-3.55900E-02 6.79400E-03 2.55234E-01
 -1       546-3.78750E-02 6.36300E-03 2.59629E-01
 -1       547-2.90150E-02 7.62600E-03 2.48748E-01
 -1       548-2.09780E-02 7.99800E-03 2.47703E-01
 -1       549-3.32650E-02 7.15100E-03 2.44989E-01
 -1       550-3.47340E-02 6.93400E-03 2.50476E-01
 -1       551-2.59810E-02 7.84100E-03 2.68449E-01
 -1       552-3.17800E-02 7.34200E-03 2.68319E-01
 -1       553-1.76210E-02 7.98700E-03 2.64856E-01
 -1       554-1.30730E-02 7.88400E-03 2.59286E-01
 -1       555-2.10630E-02 7.99700E-03 2.69441E-01
 -1       556-1.51700E-02 7.94300E-03 2.71011E-01
 -1       557-2.35310E-02 7.94700E-03 2.74604E-01
 -1       558-3.91640E-02 6.08100E-03 2.63627E-01
 -1       559-3.82500E-02 6.28400E-03 2.67002E-01
 -1       560-3.49520E-02 6.90000E-03 2.72296E-01
 -1       561-1.69850E-02 7.97800E-03 2.44509E-01
 -1       562-2.35480E-02 7.94600E-03 2.40067E-01
 -1       563-3.30040E-02 7.18700E-03 2.40316E-01
 -1       564-2.88920E-02 7.63700E-03 2.37141E-01
 -1       565-2.49070E-02 7.89500E-03 2.33947E-01
 -1       566-6.07900E-03 7.55900E-03 2.64096E-01
 -1       567-7.42100E-03 7.63500E-03 2.56955E-01
 -1       568 1.62900E-03 7.00400E-03 2.54927E-01
 -1       569-5.35500E-03 7.51500E-03 2.50117E-01
 -1       570-1.14240E-02 7.82400E-03 2.44230E-01
 -1       571-2.36700E-03 7.31500E-03 2.42202E-01
 -1       572-1.39910E-02 7.91200E-03 2.36593E-01
 -1       573-4.10000E-05 7.14000E-03 2.26585E-01
 -1       574 8.80100E-03 6.33200E-03 2.26181E-01
 -1       575 2.04600E-03 6.96900E-03 2.19368E-01
 -1       576 5.66400E-03 6.64300E-03 2.13441E-01
 -1       577-3.18500E-03 7.37300E-03 2.13846E-01
 -1       578-7.62100E-03 7.64600E-03 2.28043E-01
 -1       579-8.51000E-04 7.20300E-03 2.34856E-01
 -1       580-6.66400E-03 7.59300E-03 2.06430E-01
 -1       581-1.02920E-02 7.77700E-03 2.12357E-01
 -1       582-1.35430E-02 7.89900E-03 2.30738E-01
 -1       583-1.27310E-02 7.87200E-03 2.22467E-01